-4.141027434999999741e+02
-4.227898745200000121e+02
-4.227898745200000121e+02
-4.227898745200000121e+02
-4.215299053599999866e+02
-4.227898745200000121e+02
-4.227898745200000121e+02
-4.161209339900000259e+02
-4.122628299699999843e+02
-4.227898745200000121e+02
-4.177801165100000276e+02
-4.227898745200000121e+02
-4.227898745200000121e+02
-4.227898745200000121e+02
-4.136310814199999868e+02
-4.170706166599999847e+02
-4.111025156599999946e+02
-4.166506073900000047e+02
-4.227898745200000121e+02
-4.227898745200000121e+02
-4.106885069400000248e+02
-4.123229669699999818e+02
-4.152479919699999868e+02
-4.227898745200000121e+02
-4.171892093299999829e+02
-4.227898745200000121e+02
-4.210513663799999904e+02
-4.135401203100000203e+02
-4.143573520099999996e+02
-4.168872436799999832e+02
-4.111636426499999857e+02
-4.227898745200000121e+02
-4.227898745200000121e+02
-4.133112121199999933e+02
