7.499059999999999615e-01 -1.039968000000000004e+00 2.751358000000000192e+00 1.056445999999999996e+00 4.727669999999999928e-01 -8.325899999999999967e-02 -2.023823999999999845e+00 -2.840838000000000196e+00 1.380848000000000075e+00 2.291726000000000152e+00 -3.557580000000000187e-01 1.328270999999999979e+00 -1.079387000000000096e+00 -3.524120000000000030e-01 -1.093096999999999985e+00 -7.498150000000000093e-01 1.381264999999999965e+00 1.034912000000000054e+00 1.431400999999999923e+00 -2.694440000000000168e-01 -2.478594000000000186e+00 -6.187999999999999751e-02 2.939656999999999965e+00 5.598959999999999493e-01 1.660875000000000101e+00 6.952009999999999579e-01 -7.811940000000000550e-01 -7.132290000000000019e-01 1.523114999999999997e+00 5.225410000000000332e-01 8.011500000000000288e-01 -1.284351000000000020e+00 -1.337412999999999963e+00 -1.062105999999999995e+00 9.727019999999999555e-01 3.136479999999999824e-01 2.433987000000000123e+00 9.782840000000000424e-01 -2.985897000000000023e+00 2.760717999999999783e+00 1.814491000000000076e+00 -2.114479999999999971e-01 3.063790000000000124e-01 1.042094000000000076e+00 -7.261000000000000093e-03 2.433438000000000212e+00 9.510950000000000237e-01 -2.851940000000000031e-01 3.398079999999999989e-01 -7.564359999999999973e-01 -7.338050000000000406e-01 -1.386185999999999918e+00 -1.501776999999999918e+00 6.423929999999999918e-01 -5.299589999999999579e-01 5.921309999999999629e-01 -9.254850000000000021e-01 -3.866140000000000132e-01 4.592829999999999968e-01 4.014989999999999948e-01 -1.160330000000000084e+00 1.112343999999999999e+00 3.151778000000000191e+00 1.369653000000000009e+00 -1.317139999999999977e+00 -1.085617000000000054e+00 -5.664169999999999483e-01 -6.904540000000000122e-01 -1.177710000000000007e-01 -2.538349999999999773e-01 2.482520000000000004e-01 1.103294999999999915e+00 -7.837099999999999622e-02 1.439721000000000029e+00 -2.762399999999999856e-01 -2.304174999999999862e+00 2.708451999999999860e+00 -7.181089999999999973e-01 -3.508950000000000125e-01 2.975130000000000274e-01 -1.357649999999999968e-01 1.103404999999999969e+00 1.917316000000000020e+00 5.435189999999999744e-01 -2.670465000000000089e+00 3.593879999999999852e-01 -2.798140000000000072e-01 -2.030689000000000188e+00 -1.555377000000000010e+00 1.429969999999999963e+00 -4.701000999999999763e+00 -2.747501999999999889e+00 3.286363999999999841e+00 -5.605219999999999647e-01 -6.375790000000000068e-01 1.058486000000000038e+00 -1.396890000000000076e-01 -5.221940000000000470e-01 1.163178999999999963e+00 -2.615031000000000105e+00 8.159800000000000386e-02 -4.163479999999999959e-01 -6.078540000000000054e-01 4.616599999999999870e-02 1.145823000000000036e+00 -6.151600000000000124e-02 -4.985049999999999759e-01 -3.238130000000000175e-01 1.812439999999999884e-01 1.074937000000000031e+00 9.220040000000000457e-01 -2.271685000000000176e+00 -6.427659999999999485e-01 -1.803633000000000042e+00 -2.386734000000000133e+00 -1.019031999999999938e+00 -2.590634000000000103e+00 8.704690000000000483e-01 -2.117557000000000134e+00 1.487592000000000025e+00 1.425343999999999944e+00 9.143689999999999873e-01 8.563049999999999828e-01 8.949799999999999978e-01 3.261850000000000027e-01 1.720649999999999957e-01 1.529174000000000033e+00 1.538121000000000071e+00 1.179260000000000030e-01 -6.146299999999999680e-02 -1.345079999999999887e-01 -1.278310000000000057e+00 -1.869634000000000018e+00 4.550710000000000033e-01 2.328999999999999959e-01 -1.622705000000000064e+00 1.127445999999999948e+00 3.381100000000000078e-02 3.440275000000000194e+00 1.866930999999999896e+00 -4.269346999999999781e+00 2.450244999999999784e+00 -2.378073999999999799e+00 9.143229999999999968e-01 1.758586999999999900e+00 -2.406404000000000210e+00 7.085099999999999731e-01 1.442539000000000016e+00 -1.336710000000000065e+00 -2.157969000000000026e+00 -5.472770000000000135e-01 -1.213615000000000110e+00 4.396930000000000005e-01 8.646760000000000002e-01 -5.360380000000000145e-01 1.826250000000000095e-01 1.256863999999999981e+00 -1.181456999999999979e+00 -1.509516999999999998e+00
2.930000000000000204e-04 1.090000000000000067e-04 -2.799999999999999958e-05 -2.620000000000000258e-04 1.469999999999999953e-04 -7.700000000000000139e-05 0.000000000000000000e+00 1.920000000000000049e-04 2.799999999999999958e-05 -1.920000000000000049e-04 -6.000000000000000152e-05 -1.310000000000000129e-04 2.669999999999999847e-04 1.179999999999999951e-04 7.299999999999999903e-05 9.569999999999999514e-04 -1.620000000000000075e-04 -3.000000000000000076e-05 3.600000000000000091e-05 -1.069999999999999988e-04 5.099999999999999960e-05 -2.829999999999999942e-04 -2.759999999999999867e-04 3.800000000000000209e-05 -2.460000000000000164e-04 1.930000000000000021e-04 -1.389999999999999905e-04 -1.369999999999999961e-04 3.539999999999999853e-04 8.000000000000000654e-05 -1.459999999999999981e-04 2.090000000000000115e-04 1.679999999999999907e-04 -3.800000000000000209e-05 1.810000000000000085e-04 9.899999999999999404e-05 -1.890000000000000133e-04 2.159999999999999919e-04 6.000000000000000152e-05 -3.950000000000000061e-04 9.000000000000000228e-06 5.300000000000000078e-05 -2.329999999999999986e-04 -8.899999999999999491e-05 -1.099999999999999971e-05 -2.680000000000000090e-04 -2.229999999999999994e-04 1.039999999999999936e-04 -4.899999999999999842e-05 5.199999999999999680e-05 2.610000000000000015e-04 2.930000000000000204e-04 1.359999999999999989e-04 -2.739999999999999923e-04 9.940000000000000918e-04 1.559999999999999972e-04 -1.039999999999999936e-04 3.579999999999999741e-04 -3.300000000000000253e-05 -1.029999999999999964e-04 2.579999999999999828e-04 1.900000000000000105e-05 -7.499999999999999343e-05 2.799999999999999958e-05 -2.280000000000000126e-04 -1.190000000000000058e-04 3.420000000000000188e-04 -8.600000000000000331e-05 3.399999999999999973e-05 1.840000000000000001e-04 -2.730000000000000222e-04 -2.030000000000000012e-04 3.260000000000000094e-04 -2.939999999999999905e-04 1.019999999999999992e-04 4.780000000000000178e-04 -2.700000000000000035e-04 6.600000000000000506e-05 -5.899999999999999754e-05 5.099999999999999960e-05 -1.000000000000000082e-05 0.000000000000000000e+00 -1.200000000000000030e-04 -1.999999999999999909e-06 5.800000000000000034e-05 -1.840000000000000001e-04 1.299999999999999920e-05 2.900000000000000017e-05 -1.190000000000000058e-04 1.310000000000000129e-04 7.299999999999999903e-05 6.999999999999999387e-05 4.199999999999999768e-05 -2.229999999999999994e-04 -1.499999999999999869e-04 -1.299999999999999886e-04 2.300000000000000002e-05 -9.000000000000000228e-06 -1.000000000000000048e-04 -7.899999999999999579e-05 8.700000000000000051e-05 1.269999999999999970e-04 2.449999999999999921e-04 1.979999999999999881e-04 -1.979999999999999881e-04 -2.599999999999999840e-05 -6.099999999999999872e-05 -8.299999999999999815e-05 -2.759999999999999867e-04 2.300000000000000002e-05 2.130000000000000003e-04 1.640000000000000019e-04 1.510000000000000112e-04 -2.039999999999999984e-04 -1.730000000000000038e-04 -1.330000000000000073e-04 -3.499999999999999693e-05 1.589999999999999888e-04 -3.000000000000000076e-06 1.720000000000000066e-04 5.199999999999999680e-05 -9.000000000000000567e-05 -1.200000000000000030e-04 2.570000000000000127e-04 3.899999999999999929e-05 4.600000000000000004e-05 -7.899999999999999579e-05 6.799999999999999946e-05 1.379999999999999933e-04 -7.269999999999999987e-04 -3.300000000000000253e-05 -2.449999999999999921e-04 -1.789999999999999870e-04 1.500000000000000038e-05 -2.120000000000000031e-04 1.019999999999999992e-04 9.299999999999999727e-05 2.629999999999999959e-04 -3.280000000000000038e-04 -2.199999999999999943e-05 6.099999999999999872e-05 -8.200000000000000095e-05 -1.299999999999999920e-05 3.399999999999999973e-05 -3.579999999999999741e-04 3.199999999999999855e-05 4.399999999999999886e-05 1.779999999999999898e-04 1.219999999999999974e-04 2.300000000000000002e-05 -8.490000000000000368e-04 9.200000000000000007e-05 1.299999999999999920e-05 1.350000000000000017e-04 -1.190000000000000058e-04 2.799999999999999755e-04 -4.130000000000000099e-04 2.599999999999999840e-05 -1.849999999999999973e-04
2.930000000000000204e-04 1.090000000000000067e-04 -2.799999999999999958e-05 -2.620000000000000258e-04 1.469999999999999953e-04 -7.700000000000000139e-05 0.000000000000000000e+00 1.920000000000000049e-04 2.799999999999999958e-05 -1.920000000000000049e-04 -6.000000000000000152e-05 -1.310000000000000129e-04 2.669999999999999847e-04 1.179999999999999951e-04 7.299999999999999903e-05 9.569999999999999514e-04 -1.620000000000000075e-04 -3.000000000000000076e-05 3.600000000000000091e-05 -1.069999999999999988e-04 5.099999999999999960e-05 -2.829999999999999942e-04 -2.759999999999999867e-04 3.800000000000000209e-05 -2.460000000000000164e-04 1.930000000000000021e-04 -1.389999999999999905e-04 -1.369999999999999961e-04 3.539999999999999853e-04 8.000000000000000654e-05 -1.459999999999999981e-04 2.090000000000000115e-04 1.679999999999999907e-04 -3.800000000000000209e-05 1.810000000000000085e-04 9.899999999999999404e-05 -1.890000000000000133e-04 2.159999999999999919e-04 6.000000000000000152e-05 -3.950000000000000061e-04 9.000000000000000228e-06 5.300000000000000078e-05 -2.329999999999999986e-04 -8.899999999999999491e-05 -1.099999999999999971e-05 -2.680000000000000090e-04 -2.229999999999999994e-04 1.039999999999999936e-04 -4.899999999999999842e-05 5.199999999999999680e-05 2.610000000000000015e-04 2.930000000000000204e-04 1.359999999999999989e-04 -2.739999999999999923e-04 9.940000000000000918e-04 1.559999999999999972e-04 -1.039999999999999936e-04 3.579999999999999741e-04 -3.300000000000000253e-05 -1.029999999999999964e-04 2.579999999999999828e-04 1.900000000000000105e-05 -7.499999999999999343e-05 2.799999999999999958e-05 -2.280000000000000126e-04 -1.190000000000000058e-04 3.420000000000000188e-04 -8.600000000000000331e-05 3.399999999999999973e-05 1.840000000000000001e-04 -2.730000000000000222e-04 -2.030000000000000012e-04 3.260000000000000094e-04 -2.939999999999999905e-04 1.019999999999999992e-04 4.780000000000000178e-04 -2.700000000000000035e-04 6.600000000000000506e-05 -5.899999999999999754e-05 5.099999999999999960e-05 -1.000000000000000082e-05 0.000000000000000000e+00 -1.200000000000000030e-04 -1.999999999999999909e-06 5.800000000000000034e-05 -1.840000000000000001e-04 1.299999999999999920e-05 2.900000000000000017e-05 -1.190000000000000058e-04 1.310000000000000129e-04 7.299999999999999903e-05 6.999999999999999387e-05 4.199999999999999768e-05 -2.229999999999999994e-04 -1.499999999999999869e-04 -1.299999999999999886e-04 2.300000000000000002e-05 -9.000000000000000228e-06 -1.000000000000000048e-04 -7.899999999999999579e-05 8.700000000000000051e-05 1.269999999999999970e-04 2.449999999999999921e-04 1.979999999999999881e-04 -1.979999999999999881e-04 -2.599999999999999840e-05 -6.099999999999999872e-05 -8.299999999999999815e-05 -2.759999999999999867e-04 2.300000000000000002e-05 2.130000000000000003e-04 1.640000000000000019e-04 1.510000000000000112e-04 -2.039999999999999984e-04 -1.730000000000000038e-04 -1.330000000000000073e-04 -3.499999999999999693e-05 1.589999999999999888e-04 -3.000000000000000076e-06 1.720000000000000066e-04 5.199999999999999680e-05 -9.000000000000000567e-05 -1.200000000000000030e-04 2.570000000000000127e-04 3.899999999999999929e-05 4.600000000000000004e-05 -7.899999999999999579e-05 6.799999999999999946e-05 1.379999999999999933e-04 -7.269999999999999987e-04 -3.300000000000000253e-05 -2.449999999999999921e-04 -1.789999999999999870e-04 1.500000000000000038e-05 -2.120000000000000031e-04 1.019999999999999992e-04 9.299999999999999727e-05 2.629999999999999959e-04 -3.280000000000000038e-04 -2.199999999999999943e-05 6.099999999999999872e-05 -8.200000000000000095e-05 -1.299999999999999920e-05 3.399999999999999973e-05 -3.579999999999999741e-04 3.199999999999999855e-05 4.399999999999999886e-05 1.779999999999999898e-04 1.219999999999999974e-04 2.300000000000000002e-05 -8.490000000000000368e-04 9.200000000000000007e-05 1.299999999999999920e-05 1.350000000000000017e-04 -1.190000000000000058e-04 2.799999999999999755e-04 -4.130000000000000099e-04 2.599999999999999840e-05 -1.849999999999999973e-04
2.930000000000000204e-04 1.090000000000000067e-04 -2.799999999999999958e-05 -2.620000000000000258e-04 1.469999999999999953e-04 -7.700000000000000139e-05 0.000000000000000000e+00 1.920000000000000049e-04 2.799999999999999958e-05 -1.920000000000000049e-04 -6.000000000000000152e-05 -1.310000000000000129e-04 2.669999999999999847e-04 1.179999999999999951e-04 7.299999999999999903e-05 9.569999999999999514e-04 -1.620000000000000075e-04 -3.000000000000000076e-05 3.600000000000000091e-05 -1.069999999999999988e-04 5.099999999999999960e-05 -2.829999999999999942e-04 -2.759999999999999867e-04 3.800000000000000209e-05 -2.460000000000000164e-04 1.930000000000000021e-04 -1.389999999999999905e-04 -1.369999999999999961e-04 3.539999999999999853e-04 8.000000000000000654e-05 -1.459999999999999981e-04 2.090000000000000115e-04 1.679999999999999907e-04 -3.800000000000000209e-05 1.810000000000000085e-04 9.899999999999999404e-05 -1.890000000000000133e-04 2.159999999999999919e-04 6.000000000000000152e-05 -3.950000000000000061e-04 9.000000000000000228e-06 5.300000000000000078e-05 -2.329999999999999986e-04 -8.899999999999999491e-05 -1.099999999999999971e-05 -2.680000000000000090e-04 -2.229999999999999994e-04 1.039999999999999936e-04 -4.899999999999999842e-05 5.199999999999999680e-05 2.610000000000000015e-04 2.930000000000000204e-04 1.359999999999999989e-04 -2.739999999999999923e-04 9.940000000000000918e-04 1.559999999999999972e-04 -1.039999999999999936e-04 3.579999999999999741e-04 -3.300000000000000253e-05 -1.029999999999999964e-04 2.579999999999999828e-04 1.900000000000000105e-05 -7.499999999999999343e-05 2.799999999999999958e-05 -2.280000000000000126e-04 -1.190000000000000058e-04 3.420000000000000188e-04 -8.600000000000000331e-05 3.399999999999999973e-05 1.840000000000000001e-04 -2.730000000000000222e-04 -2.030000000000000012e-04 3.260000000000000094e-04 -2.939999999999999905e-04 1.019999999999999992e-04 4.780000000000000178e-04 -2.700000000000000035e-04 6.600000000000000506e-05 -5.899999999999999754e-05 5.099999999999999960e-05 -1.000000000000000082e-05 0.000000000000000000e+00 -1.200000000000000030e-04 -1.999999999999999909e-06 5.800000000000000034e-05 -1.840000000000000001e-04 1.299999999999999920e-05 2.900000000000000017e-05 -1.190000000000000058e-04 1.310000000000000129e-04 7.299999999999999903e-05 6.999999999999999387e-05 4.199999999999999768e-05 -2.229999999999999994e-04 -1.499999999999999869e-04 -1.299999999999999886e-04 2.300000000000000002e-05 -9.000000000000000228e-06 -1.000000000000000048e-04 -7.899999999999999579e-05 8.700000000000000051e-05 1.269999999999999970e-04 2.449999999999999921e-04 1.979999999999999881e-04 -1.979999999999999881e-04 -2.599999999999999840e-05 -6.099999999999999872e-05 -8.299999999999999815e-05 -2.759999999999999867e-04 2.300000000000000002e-05 2.130000000000000003e-04 1.640000000000000019e-04 1.510000000000000112e-04 -2.039999999999999984e-04 -1.730000000000000038e-04 -1.330000000000000073e-04 -3.499999999999999693e-05 1.589999999999999888e-04 -3.000000000000000076e-06 1.720000000000000066e-04 5.199999999999999680e-05 -9.000000000000000567e-05 -1.200000000000000030e-04 2.570000000000000127e-04 3.899999999999999929e-05 4.600000000000000004e-05 -7.899999999999999579e-05 6.799999999999999946e-05 1.379999999999999933e-04 -7.269999999999999987e-04 -3.300000000000000253e-05 -2.449999999999999921e-04 -1.789999999999999870e-04 1.500000000000000038e-05 -2.120000000000000031e-04 1.019999999999999992e-04 9.299999999999999727e-05 2.629999999999999959e-04 -3.280000000000000038e-04 -2.199999999999999943e-05 6.099999999999999872e-05 -8.200000000000000095e-05 -1.299999999999999920e-05 3.399999999999999973e-05 -3.579999999999999741e-04 3.199999999999999855e-05 4.399999999999999886e-05 1.779999999999999898e-04 1.219999999999999974e-04 2.300000000000000002e-05 -8.490000000000000368e-04 9.200000000000000007e-05 1.299999999999999920e-05 1.350000000000000017e-04 -1.190000000000000058e-04 2.799999999999999755e-04 -4.130000000000000099e-04 2.599999999999999840e-05 -1.849999999999999973e-04
2.577860000000000151e-01 -6.457749999999999879e-01 8.427369999999999584e-01 -3.734430000000000249e-01 4.577579999999999982e-01 1.691439999999999888e-01 -9.955519999999999925e-01 -8.846439999999999859e-01 -2.597740000000000049e-01 5.056059999999999999e-01 1.715079999999999938e-01 9.891670000000000185e-01 -4.839350000000000041e-01 -4.211070000000000091e-01 -8.991639999999999633e-01 6.355950000000000211e-01 -3.538939999999999864e-01 -3.539789999999999881e-01 -3.976199999999999873e-02 4.591890000000000138e-01 -7.012589999999999657e-01 5.406069999999999487e-01 9.992969999999999908e-01 1.733619999999999883e-01 -4.395490000000000230e-01 1.629400000000000015e-01 -1.312979999999999980e-01 6.090600000000000180e-02 5.503649999999999931e-01 1.772529999999999939e-01 6.482769999999999921e-01 -9.773159999999999625e-01 -6.227200000000000096e-02 -1.233069999999999999e-01 5.383839999999999737e-01 -1.225640000000000063e-01 3.732340000000000102e-01 -4.279819999999999736e-01 -8.387790000000000523e-01 9.758289999999999464e-01 -2.105800000000000033e-02 9.486899999999999500e-02 -5.527210000000000178e-01 -2.891200000000000020e-02 -2.825509999999999966e-01 -3.365580000000000238e-01 -4.245970000000000022e-01 3.486079999999999735e-01 2.058460000000000012e-01 -4.545549999999999868e-01 8.028680000000000261e-01 -4.089600000000000180e-02 -1.942699999999999982e-02 -5.008690000000000087e-01 4.375999999999999890e-01 -1.564290000000000125e-01 5.752880000000000216e-01 -3.076869999999999883e-01 -1.690520000000000078e-01 -5.445170000000000288e-01 -4.807290000000000174e-01 4.281179999999999986e-01 8.478999999999999870e-01 4.458360000000000101e-01 -5.951400000000000023e-01 2.371089999999999864e-01 -1.174412000000000011e+00 1.243309999999999971e-01 3.269999999999999903e-03 2.474799999999999917e-02 -4.108229999999999937e-01 -3.871709999999999874e-01 5.858210000000000361e-01 -1.482809999999999961e-01 2.424870000000000081e-01 -3.674169999999999936e-01 7.607310000000000461e-01 4.689900000000000319e-02 -5.222700000000000120e-01 8.782339999999999591e-01 -1.589490000000000069e-01 1.389559999999999962e-01 1.880892999999999926e+00 1.089064999999999950e+00 -1.401216999999999935e+00 8.467029999999999834e-01 -1.188741999999999965e+00 2.525029999999999775e-01 1.397950000000000026e-01 4.384609999999999896e-01 -1.555630999999999986e+00 -6.357570000000000165e-01 1.265918000000000099e+00 -3.278659999999999908e-01 -2.903299999999999978e-02 -3.260449999999999737e-01 -9.517320000000000224e-01 1.235229999999999939e-01 -1.787239999999999940e-01 -1.054376999999999898e+00 5.592500000000000249e-01 6.793109999999999982e-01 4.503789999999999738e-01 4.126589999999999980e-01 1.586200000000000110e-02 5.339129999999999709e-01 1.076538999999999913e+00 -9.013500000000000678e-02 -5.112039999999999917e-01 2.622180000000000066e-01 1.670230000000000048e-01 -1.061030000000000029e-01 5.794359999999999511e-01 -6.859769999999999479e-01 -8.042810000000000237e-01 -1.016693999999999987e+00 -5.523999999999999744e-02 1.568299999999999902e-02 -6.080719999999999459e-01 9.259800000000000253e-01 7.354779999999999651e-01 -1.080170000000000019e-01 -1.977849999999999886e-01 -2.686520000000000019e-01 4.455649999999999888e-01 -3.232289999999999885e-01 6.089029999999999720e-01 2.049630000000000063e-01 8.682769999999999655e-01 -8.389799999999999480e-01 -3.217409999999999992e-01 -7.550670000000000437e-01 -6.786799999999999777e-02 -4.392200000000000271e-02 -5.141099999999999559e-01 4.166579999999999728e-01 3.403430000000000066e-01 1.284609999999999919e-01 1.511554000000000064e+00 8.838300000000000045e-01 -1.235257000000000049e+00 5.540300000000000225e-01 -8.689360000000000417e-01 2.000429999999999986e-01 1.532531000000000088e+00 -8.089480000000000004e-01 1.363807999999999909e+00 5.423000000000000043e-02 -1.764671000000000101e+00 -1.360708000000000029e+00 1.022582000000000102e+00 -9.287000000000000116e-03 2.029650000000000065e-01 -4.290499999999999869e-02 -6.661749999999999616e-01 9.474599999999999689e-02 6.439650000000000096e-01 -2.663249999999999784e-01 -8.367200000000000193e-01
2.930000000000000204e-04 1.090000000000000067e-04 -2.799999999999999958e-05 -2.620000000000000258e-04 1.469999999999999953e-04 -7.700000000000000139e-05 0.000000000000000000e+00 1.920000000000000049e-04 2.799999999999999958e-05 -1.920000000000000049e-04 -6.000000000000000152e-05 -1.310000000000000129e-04 2.669999999999999847e-04 1.179999999999999951e-04 7.299999999999999903e-05 9.569999999999999514e-04 -1.620000000000000075e-04 -3.000000000000000076e-05 3.600000000000000091e-05 -1.069999999999999988e-04 5.099999999999999960e-05 -2.829999999999999942e-04 -2.759999999999999867e-04 3.800000000000000209e-05 -2.460000000000000164e-04 1.930000000000000021e-04 -1.389999999999999905e-04 -1.369999999999999961e-04 3.539999999999999853e-04 8.000000000000000654e-05 -1.459999999999999981e-04 2.090000000000000115e-04 1.679999999999999907e-04 -3.800000000000000209e-05 1.810000000000000085e-04 9.899999999999999404e-05 -1.890000000000000133e-04 2.159999999999999919e-04 6.000000000000000152e-05 -3.950000000000000061e-04 9.000000000000000228e-06 5.300000000000000078e-05 -2.329999999999999986e-04 -8.899999999999999491e-05 -1.099999999999999971e-05 -2.680000000000000090e-04 -2.229999999999999994e-04 1.039999999999999936e-04 -4.899999999999999842e-05 5.199999999999999680e-05 2.610000000000000015e-04 2.930000000000000204e-04 1.359999999999999989e-04 -2.739999999999999923e-04 9.940000000000000918e-04 1.559999999999999972e-04 -1.039999999999999936e-04 3.579999999999999741e-04 -3.300000000000000253e-05 -1.029999999999999964e-04 2.579999999999999828e-04 1.900000000000000105e-05 -7.499999999999999343e-05 2.799999999999999958e-05 -2.280000000000000126e-04 -1.190000000000000058e-04 3.420000000000000188e-04 -8.600000000000000331e-05 3.399999999999999973e-05 1.840000000000000001e-04 -2.730000000000000222e-04 -2.030000000000000012e-04 3.260000000000000094e-04 -2.939999999999999905e-04 1.019999999999999992e-04 4.780000000000000178e-04 -2.700000000000000035e-04 6.600000000000000506e-05 -5.899999999999999754e-05 5.099999999999999960e-05 -1.000000000000000082e-05 0.000000000000000000e+00 -1.200000000000000030e-04 -1.999999999999999909e-06 5.800000000000000034e-05 -1.840000000000000001e-04 1.299999999999999920e-05 2.900000000000000017e-05 -1.190000000000000058e-04 1.310000000000000129e-04 7.299999999999999903e-05 6.999999999999999387e-05 4.199999999999999768e-05 -2.229999999999999994e-04 -1.499999999999999869e-04 -1.299999999999999886e-04 2.300000000000000002e-05 -9.000000000000000228e-06 -1.000000000000000048e-04 -7.899999999999999579e-05 8.700000000000000051e-05 1.269999999999999970e-04 2.449999999999999921e-04 1.979999999999999881e-04 -1.979999999999999881e-04 -2.599999999999999840e-05 -6.099999999999999872e-05 -8.299999999999999815e-05 -2.759999999999999867e-04 2.300000000000000002e-05 2.130000000000000003e-04 1.640000000000000019e-04 1.510000000000000112e-04 -2.039999999999999984e-04 -1.730000000000000038e-04 -1.330000000000000073e-04 -3.499999999999999693e-05 1.589999999999999888e-04 -3.000000000000000076e-06 1.720000000000000066e-04 5.199999999999999680e-05 -9.000000000000000567e-05 -1.200000000000000030e-04 2.570000000000000127e-04 3.899999999999999929e-05 4.600000000000000004e-05 -7.899999999999999579e-05 6.799999999999999946e-05 1.379999999999999933e-04 -7.269999999999999987e-04 -3.300000000000000253e-05 -2.449999999999999921e-04 -1.789999999999999870e-04 1.500000000000000038e-05 -2.120000000000000031e-04 1.019999999999999992e-04 9.299999999999999727e-05 2.629999999999999959e-04 -3.280000000000000038e-04 -2.199999999999999943e-05 6.099999999999999872e-05 -8.200000000000000095e-05 -1.299999999999999920e-05 3.399999999999999973e-05 -3.579999999999999741e-04 3.199999999999999855e-05 4.399999999999999886e-05 1.779999999999999898e-04 1.219999999999999974e-04 2.300000000000000002e-05 -8.490000000000000368e-04 9.200000000000000007e-05 1.299999999999999920e-05 1.350000000000000017e-04 -1.190000000000000058e-04 2.799999999999999755e-04 -4.130000000000000099e-04 2.599999999999999840e-05 -1.849999999999999973e-04
2.930000000000000204e-04 1.090000000000000067e-04 -2.799999999999999958e-05 -2.620000000000000258e-04 1.469999999999999953e-04 -7.700000000000000139e-05 0.000000000000000000e+00 1.920000000000000049e-04 2.799999999999999958e-05 -1.920000000000000049e-04 -6.000000000000000152e-05 -1.310000000000000129e-04 2.669999999999999847e-04 1.179999999999999951e-04 7.299999999999999903e-05 9.569999999999999514e-04 -1.620000000000000075e-04 -3.000000000000000076e-05 3.600000000000000091e-05 -1.069999999999999988e-04 5.099999999999999960e-05 -2.829999999999999942e-04 -2.759999999999999867e-04 3.800000000000000209e-05 -2.460000000000000164e-04 1.930000000000000021e-04 -1.389999999999999905e-04 -1.369999999999999961e-04 3.539999999999999853e-04 8.000000000000000654e-05 -1.459999999999999981e-04 2.090000000000000115e-04 1.679999999999999907e-04 -3.800000000000000209e-05 1.810000000000000085e-04 9.899999999999999404e-05 -1.890000000000000133e-04 2.159999999999999919e-04 6.000000000000000152e-05 -3.950000000000000061e-04 9.000000000000000228e-06 5.300000000000000078e-05 -2.329999999999999986e-04 -8.899999999999999491e-05 -1.099999999999999971e-05 -2.680000000000000090e-04 -2.229999999999999994e-04 1.039999999999999936e-04 -4.899999999999999842e-05 5.199999999999999680e-05 2.610000000000000015e-04 2.930000000000000204e-04 1.359999999999999989e-04 -2.739999999999999923e-04 9.940000000000000918e-04 1.559999999999999972e-04 -1.039999999999999936e-04 3.579999999999999741e-04 -3.300000000000000253e-05 -1.029999999999999964e-04 2.579999999999999828e-04 1.900000000000000105e-05 -7.499999999999999343e-05 2.799999999999999958e-05 -2.280000000000000126e-04 -1.190000000000000058e-04 3.420000000000000188e-04 -8.600000000000000331e-05 3.399999999999999973e-05 1.840000000000000001e-04 -2.730000000000000222e-04 -2.030000000000000012e-04 3.260000000000000094e-04 -2.939999999999999905e-04 1.019999999999999992e-04 4.780000000000000178e-04 -2.700000000000000035e-04 6.600000000000000506e-05 -5.899999999999999754e-05 5.099999999999999960e-05 -1.000000000000000082e-05 0.000000000000000000e+00 -1.200000000000000030e-04 -1.999999999999999909e-06 5.800000000000000034e-05 -1.840000000000000001e-04 1.299999999999999920e-05 2.900000000000000017e-05 -1.190000000000000058e-04 1.310000000000000129e-04 7.299999999999999903e-05 6.999999999999999387e-05 4.199999999999999768e-05 -2.229999999999999994e-04 -1.499999999999999869e-04 -1.299999999999999886e-04 2.300000000000000002e-05 -9.000000000000000228e-06 -1.000000000000000048e-04 -7.899999999999999579e-05 8.700000000000000051e-05 1.269999999999999970e-04 2.449999999999999921e-04 1.979999999999999881e-04 -1.979999999999999881e-04 -2.599999999999999840e-05 -6.099999999999999872e-05 -8.299999999999999815e-05 -2.759999999999999867e-04 2.300000000000000002e-05 2.130000000000000003e-04 1.640000000000000019e-04 1.510000000000000112e-04 -2.039999999999999984e-04 -1.730000000000000038e-04 -1.330000000000000073e-04 -3.499999999999999693e-05 1.589999999999999888e-04 -3.000000000000000076e-06 1.720000000000000066e-04 5.199999999999999680e-05 -9.000000000000000567e-05 -1.200000000000000030e-04 2.570000000000000127e-04 3.899999999999999929e-05 4.600000000000000004e-05 -7.899999999999999579e-05 6.799999999999999946e-05 1.379999999999999933e-04 -7.269999999999999987e-04 -3.300000000000000253e-05 -2.449999999999999921e-04 -1.789999999999999870e-04 1.500000000000000038e-05 -2.120000000000000031e-04 1.019999999999999992e-04 9.299999999999999727e-05 2.629999999999999959e-04 -3.280000000000000038e-04 -2.199999999999999943e-05 6.099999999999999872e-05 -8.200000000000000095e-05 -1.299999999999999920e-05 3.399999999999999973e-05 -3.579999999999999741e-04 3.199999999999999855e-05 4.399999999999999886e-05 1.779999999999999898e-04 1.219999999999999974e-04 2.300000000000000002e-05 -8.490000000000000368e-04 9.200000000000000007e-05 1.299999999999999920e-05 1.350000000000000017e-04 -1.190000000000000058e-04 2.799999999999999755e-04 -4.130000000000000099e-04 2.599999999999999840e-05 -1.849999999999999973e-04