6.173136024999999805e+00 0.000000000000000000e+00 0.000000000000000000e+00 -1.809849145999999909e+00 8.146969863000000700e+00 0.000000000000000000e+00 -1.588617673999999980e+00 2.793783110000000125e+00 7.657337536000000000e+00
6.230916431999999894e+00 0.000000000000000000e+00 0.000000000000000000e+00 -1.613248599999999922e+00 8.112388500999999863e+00 0.000000000000000000e+00 -1.580309801999999930e+00 2.779667927999999844e+00 7.726710032999999811e+00
6.319338929999999799e+00 0.000000000000000000e+00 0.000000000000000000e+00 -1.684075991000000050e+00 8.113204331000000380e+00 0.000000000000000000e+00 -1.498679706999999972e+00 2.775415445000000148e+00 7.624023151000000276e+00
6.216124343999999802e+00 0.000000000000000000e+00 0.000000000000000000e+00 -1.789353106000000082e+00 7.908621115999999951e+00 0.000000000000000000e+00 -1.556473078000000010e+00 2.629081848999999860e+00 7.509505096999999907e+00
6.332489118999999889e+00 0.000000000000000000e+00 0.000000000000000000e+00 -1.595908746999999961e+00 8.001825217000000379e+00 0.000000000000000000e+00 -2.031966993999999804e+00 2.558438772000000139e+00 7.629305980999999903e+00
6.100659475999999692e+00 0.000000000000000000e+00 0.000000000000000000e+00 -1.571764472999999995e+00 8.017299850000000561e+00 0.000000000000000000e+00 -1.484026440999999918e+00 2.509395572999999935e+00 7.524684425000000232e+00
6.233864493999999645e+00 0.000000000000000000e+00 0.000000000000000000e+00 -1.490154913000000025e+00 8.147028066000000734e+00 0.000000000000000000e+00 -1.528299520000000022e+00 2.701520378000000111e+00 7.655724207999999642e+00
6.148478318000000442e+00 0.000000000000000000e+00 0.000000000000000000e+00 -1.777760907000000001e+00 8.092233285000000720e+00 0.000000000000000000e+00 -1.632415082999999933e+00 2.782525101000000056e+00 7.601794581000000051e+00
6.320598445999999981e+00 0.000000000000000000e+00 0.000000000000000000e+00 -1.651237406999999990e+00 8.245751026000000650e+00 0.000000000000000000e+00 -1.576745414999999984e+00 2.724332351000000152e+00 7.663954877000000110e+00
6.302357195999999995e+00 0.000000000000000000e+00 0.000000000000000000e+00 -1.695011266999999933e+00 8.176991577000000788e+00 0.000000000000000000e+00 -1.513524574999999928e+00 2.726094065999999927e+00 7.607507413999999635e+00
6.300421832999999694e+00 0.000000000000000000e+00 0.000000000000000000e+00 -1.486135996000000015e+00 8.203075242000000600e+00 0.000000000000000000e+00 -1.510369451999999946e+00 2.697969647999999943e+00 7.795471210999999734e+00
6.128259378000000090e+00 0.000000000000000000e+00 0.000000000000000000e+00 4.673801502999999968e+00 8.193343191000000303e+00 0.000000000000000000e+00 4.713308460000000366e+00 2.747364095000000006e+00 7.467146750000000388e+00
6.371489974000000167e+00 0.000000000000000000e+00 0.000000000000000000e+00 -1.585439583000000097e+00 8.186523340999999121e+00 0.000000000000000000e+00 -1.483202485000000070e+00 2.759620771999999889e+00 7.820074149999999946e+00
6.115831518000000244e+00 0.000000000000000000e+00 0.000000000000000000e+00 -1.676827590999999895e+00 7.985305365000000322e+00 0.000000000000000000e+00 -1.362022217000000035e+00 2.848884737000000111e+00 7.424818632000000029e+00
6.394738256000000121e+00 0.000000000000000000e+00 0.000000000000000000e+00 -1.540768979000000094e+00 8.163276688999999919e+00 0.000000000000000000e+00 -1.470358005000000023e+00 2.787457571000000023e+00 7.884070798999999852e+00
6.332040973999999878e+00 0.000000000000000000e+00 0.000000000000000000e+00 -1.578857702999999946e+00 8.257528060000000281e+00 0.000000000000000000e+00 -1.575728736999999935e+00 2.741190823000000165e+00 7.755859999000000116e+00
6.210090076000000181e+00 0.000000000000000000e+00 0.000000000000000000e+00 -1.648654132000000105e+00 8.125432680999999491e+00 0.000000000000000000e+00 -1.516576823999999935e+00 2.826791324000000216e+00 7.590659071000000147e+00
6.225962272000000297e+00 0.000000000000000000e+00 0.000000000000000000e+00 -1.769178260999999974e+00 8.099257000999999789e+00 0.000000000000000000e+00 -1.552137306999999966e+00 2.704673297999999892e+00 7.587026639000000294e+00
6.390469953000000203e+00 0.000000000000000000e+00 0.000000000000000000e+00 -1.803524203000000048e+00 8.376744090000000753e+00 0.000000000000000000e+00 -1.624175139999999962e+00 2.766541539999999966e+00 7.942281146000000014e+00
6.361738099000000091e+00 0.000000000000000000e+00 0.000000000000000000e+00 -1.783435327000000070e+00 8.355713459000000398e+00 0.000000000000000000e+00 -1.678257282999999989e+00 2.715043976000000026e+00 7.709881084000000051e+00
6.126834734000000005e+00 0.000000000000000000e+00 0.000000000000000000e+00 -1.584528246999999945e+00 8.229973989999999517e+00 0.000000000000000000e+00 -1.460450084999999953e+00 2.601196128000000218e+00 7.663897185999999806e+00
6.289952654999999559e+00 0.000000000000000000e+00 0.000000000000000000e+00 4.695249568000000373e+00 7.945185636999999801e+00 0.000000000000000000e+00 4.905092091000000210e+00 2.593903810000000032e+00 7.433011508999999961e+00
6.232524103000000260e+00 0.000000000000000000e+00 0.000000000000000000e+00 -1.607060141000000053e+00 8.091591186000000491e+00 0.000000000000000000e+00 -1.668571065999999936e+00 2.610940074999999805e+00 7.593422104000000061e+00
6.313326280000000068e+00 0.000000000000000000e+00 0.000000000000000000e+00 -1.540729843000000043e+00 8.116696861999999513e+00 0.000000000000000000e+00 -1.521057029999999921e+00 2.760924714999999807e+00 7.834401718999999709e+00
6.104343856999999929e+00 0.000000000000000000e+00 0.000000000000000000e+00 -1.489612841000000021e+00 8.311457647999999310e+00 0.000000000000000000e+00 -1.433695838000000000e+00 2.690184791000000075e+00 7.732779067000000062e+00
6.286904929000000308e+00 0.000000000000000000e+00 0.000000000000000000e+00 -1.666913086000000099e+00 8.133326214000000220e+00 0.000000000000000000e+00 -1.716643986000000011e+00 2.590336685000000028e+00 7.825146661999999864e+00
6.124431924999999666e+00 0.000000000000000000e+00 0.000000000000000000e+00 -1.560649200000000070e+00 7.898983728000000148e+00 0.000000000000000000e+00 -1.568957162000000016e+00 2.678744714000000027e+00 7.591248282999999653e+00
6.128259378000000090e+00 0.000000000000000000e+00 0.000000000000000000e+00 4.673801502999999968e+00 8.193343191000000303e+00 0.000000000000000000e+00 4.713308460000000366e+00 2.747364095000000006e+00 7.467146750000000388e+00
6.346384424000000024e+00 0.000000000000000000e+00 0.000000000000000000e+00 -1.617283323999999967e+00 8.373843712999999411e+00 0.000000000000000000e+00 -1.440266728999999968e+00 2.846166100000000032e+00 7.838927313000000119e+00
6.164543794000000076e+00 0.000000000000000000e+00 0.000000000000000000e+00 -1.413618607999999943e+00 8.147827311000000350e+00 0.000000000000000000e+00 -1.506085121999999998e+00 2.560902008999999868e+00 7.603553808000000025e+00
6.335924416000000114e+00 0.000000000000000000e+00 0.000000000000000000e+00 -1.749158422000000046e+00 8.384913415999999842e+00 0.000000000000000000e+00 -1.509026608000000103e+00 2.793562996999999992e+00 7.661614937999999597e+00
6.184114189999999844e+00 0.000000000000000000e+00 0.000000000000000000e+00 -1.499225698999999912e+00 8.038405456999999643e+00 0.000000000000000000e+00 -1.430445841000000051e+00 2.647829243999999971e+00 7.629597809999999924e+00
6.349002680999999981e+00 0.000000000000000000e+00 0.000000000000000000e+00 -1.561881682999999965e+00 8.240675985999999398e+00 0.000000000000000000e+00 -1.508233931999999999e+00 2.739078241000000080e+00 7.791884222000000193e+00
6.188859594000000186e+00 0.000000000000000000e+00 0.000000000000000000e+00 -1.707500484999999957e+00 8.098114443000000051e+00 0.000000000000000000e+00 -1.507437901000000080e+00 2.682647679000000007e+00 7.687578021000000206e+00
6.137513251999999753e+00 0.000000000000000000e+00 0.000000000000000000e+00 -1.648608510999999943e+00 8.140604472999999786e+00 0.000000000000000000e+00 -1.562947051000000087e+00 2.807950420000000058e+00 7.668902369999999635e+00
6.380134283000000295e+00 0.000000000000000000e+00 0.000000000000000000e+00 -1.727442388999999912e+00 8.272549808000000837e+00 0.000000000000000000e+00 -1.601232747000000067e+00 2.678945605000000008e+00 7.730443753000000306e+00
6.470652044000000380e+00 0.000000000000000000e+00 0.000000000000000000e+00 -1.956511808999999991e+00 8.147451416999999196e+00 0.000000000000000000e+00 -1.838526123999999928e+00 2.792784367999999962e+00 7.689695590000000358e+00
6.214837601000000156e+00 0.000000000000000000e+00 0.000000000000000000e+00 -1.520397041000000060e+00 8.174231087000000784e+00 0.000000000000000000e+00 -1.503713550000000065e+00 2.623297613000000084e+00 7.737036929000000285e+00
6.237377347999999877e+00 0.000000000000000000e+00 0.000000000000000000e+00 -1.645266161999999976e+00 8.031859378000000049e+00 0.000000000000000000e+00 -1.422168826999999913e+00 2.807339176999999797e+00 7.662035088999999743e+00
6.298038541999999573e+00 0.000000000000000000e+00 0.000000000000000000e+00 -1.696151205999999911e+00 8.046384383999999557e+00 0.000000000000000000e+00 -1.409722249000000094e+00 2.810037889000000177e+00 7.579687447000000411e+00
6.196724301999999795e+00 0.000000000000000000e+00 0.000000000000000000e+00 -1.526763658999999995e+00 8.138055464000000683e+00 0.000000000000000000e+00 -1.565548909000000100e+00 2.625177975000000163e+00 7.542507239999999946e+00
6.194731684999999821e+00 0.000000000000000000e+00 0.000000000000000000e+00 -1.539178394999999977e+00 8.136157734999999391e+00 0.000000000000000000e+00 -1.488199902000000074e+00 2.761580314000000147e+00 7.642028545999999700e+00
6.406527415000000225e+00 0.000000000000000000e+00 0.000000000000000000e+00 -1.656007457999999932e+00 8.308515155000000263e+00 0.000000000000000000e+00 -1.602990300999999951e+00 2.727099260000000136e+00 7.790101142000000145e+00
6.323214894000000363e+00 0.000000000000000000e+00 0.000000000000000000e+00 -1.372227818999999904e+00 7.895526149000000160e+00 0.000000000000000000e+00 -1.801311987999999920e+00 2.468787530999999813e+00 7.697374553000000397e+00
6.215650007999999893e+00 0.000000000000000000e+00 0.000000000000000000e+00 4.787854004999999802e+00 7.978710866000000124e+00 0.000000000000000000e+00 4.734033455999999696e+00 2.722767365000000162e+00 7.345564373000000202e+00
6.338663272999999876e+00 0.000000000000000000e+00 0.000000000000000000e+00 -1.724214678000000056e+00 8.384866046000000850e+00 0.000000000000000000e+00 -1.567203458999999910e+00 2.794602659999999794e+00 7.935716044000000302e+00
6.289619981999999609e+00 0.000000000000000000e+00 0.000000000000000000e+00 -1.383756052999999930e+00 8.298728605000000869e+00 0.000000000000000000e+00 -1.527349717999999967e+00 2.691870804000000117e+00 7.730409850000000027e+00
6.292479157999999906e+00 0.000000000000000000e+00 0.000000000000000000e+00 -1.634569208000000051e+00 8.118745705000000257e+00 0.000000000000000000e+00 -1.737020433000000086e+00 2.561407400999999862e+00 7.765834414000000407e+00
6.227536985999999608e+00 0.000000000000000000e+00 0.000000000000000000e+00 -1.742375231000000024e+00 8.070492021999999821e+00 0.000000000000000000e+00 -1.829599890999999978e+00 2.585667861000000123e+00 7.595819139999999692e+00
6.082499496999999700e+00 0.000000000000000000e+00 0.000000000000000000e+00 -1.562019999000000103e+00 8.099202998999999181e+00 0.000000000000000000e+00 -1.387388228999999917e+00 2.552627851000000003e+00 7.624799853999999932e+00
