-3.825381422699999803e+02
-3.851731118000000151e+02
-3.856935815200000093e+02
-3.831319914399999789e+02
-3.813530446299999994e+02
-3.829167952500000069e+02
-3.804759414399999855e+02
-3.808450024399999734e+02
-3.868909950799999820e+02
-3.796567577899999719e+02
-3.858286006999999813e+02
-3.836398804799999880e+02
-3.859489102800000069e+02
-3.845820304900000224e+02
-3.842895272499999919e+02
-3.823836381200000005e+02
-3.803786388899999906e+02
-3.835451700200000005e+02
-3.863752898999999843e+02
-3.830782520800000270e+02
