1.748830000000000107e-01 4.677060000000000106e-01 5.582240000000000535e-01 6.188350000000000239e-01 1.297358999999999929e+00 1.703087999999999935e+00 1.502161000000000080e+00 -3.634434999999999860e+00 -1.720358999999999972e+00 -4.115389999999999882e-01 1.467381000000000046e+00 2.633289999999999798e-01 -2.904996999999999829e+00 1.458239000000000063e+00 -1.190690999999999944e+00 2.203035999999999994e+00 -9.776620000000000310e-01 2.900133999999999990e+00 -8.591389999999999860e-01 2.181833999999999829e+00 -1.970445999999999920e+00 1.299495999999999984e+00 8.443140000000000089e-01 1.279657999999999962e+00 1.065644999999999953e+00 6.712139999999999773e-01 6.191820000000000102e-01 -3.651800000000000185e-02 1.096530999999999922e+00 1.894554999999999989e+00 1.652740000000000098e+00 3.056945999999999941e+00 8.371480000000000032e-01 4.756166000000000338e+00 -2.432501999999999942e+00 -4.337615000000000443e+00 1.430636000000000019e+00 -8.237069999999999670e-01 2.967163999999999913e+00 -1.007349000000000050e+00 -9.344749999999999446e-01 1.134424000000000099e+00 8.782280000000000086e-01 -6.472999999999999587e-02 -1.368125000000000036e+00 -1.814036999999999900e+00 -2.577580000000000204e+00 2.465000000000000177e-03 7.941639999999999810e-01 4.175383000000000067e+00 -4.666850000000000165e-01 6.158689999999999998e-01 1.093156999999999934e+00 2.289822000000000024e+00 3.104319999999999857e-01 7.525319999999999787e-01 7.575450000000000239e-01 7.109875999999999863e+00 3.347887000000000057e+00 -2.882131000000000220e+00 -1.943479999999999930e-01 -3.728647000000000045e+00 -1.406220000000000026e+00 -2.480086000000000013e+00 2.048823000000000061e+00 -1.796092000000000022e+00 2.412573000000000079e+00 2.044668999999999848e+00 2.796520000000000117e-01 3.430515000000000203e+00 1.262920000000000043e+00 6.437460000000000404e-01 9.575879999999999947e-01 -7.980969999999999454e-01 1.125780000000000003e+00 -8.941572999999999993e+00 -4.565999999999999837e+00 6.546399999999999442e-02 1.153720000000000023e-01 2.818019999999999969e-01 -7.513899999999999746e-02 -8.160739999999999661e-01 -5.688630000000000075e-01 -7.173789999999999889e-01 -3.491203000000000056e+00 -3.495369999999999866e+00 3.300154000000000032e+00 -2.637135999999999925e+00 -4.773939999999999850e-01 6.426159999999999650e-01 -5.237559999999999993e-01 -1.234691999999999901e+00 1.002054999999999918e+00 1.675591000000000053e+00 5.008289999999999687e-01 -4.432457999999999565e+00 -1.942968000000000028e+00 -4.039500000000000035e-02 1.825280000000000014e+00 3.570126000000000133e+00 4.909899999999999681e-02 9.882999999999999563e-01 -4.884950000000000125e-01 6.564140000000000530e-01 1.894611000000000045e+00 -1.316353000000000106e+00 1.470995000000000053e+00 -1.243910000000000071e+00 1.211093999999999893e+00 4.687169999999999948e-01 -8.174449999999999772e-01 9.091299999999999382e-02 -2.633220999999999812e+00 -3.002797999999999856e+00 3.198179999999999912e-01 1.369850999999999930e+00 -5.540119999999999489e-01 -1.518688000000000038e+00 1.808413999999999966e+00 -9.610009999999999941e-01 -4.734920000000000240e-01 -2.190120000000000122e-01 -8.058210000000000095e-01 1.369731000000000032e+00 -1.270675999999999917e+00 1.612490000000000034e-01 -1.271092000000000111e+00 -1.704296000000000033e+00 -1.546837000000000018e+00 -2.072693000000000119e+00 -2.818830000000000169e+00 1.227149000000000045e+00 -4.432659999999999934e-01 2.379052000000000167e+00 1.753100000000000144e-02 1.518189999999999928e+00 -1.292919999999999903e-01 1.706799999999999984e-02 7.754929999999999879e-01 -4.877023999999999582e+00 1.670552999999999955e+00 -6.214364999999999917e+00 3.754830999999999808e+00 -7.727819999999999689e-01
7.845959999999999601e-01 -2.573144000000000098e+00 -3.030109999999999748e-01 -7.903790000000000537e-01 1.281317000000000039e+00 -2.724149000000000154e+00 1.611369999999999969e+00 -1.932600000000000096e+00 -6.178709999999999480e-01 1.694430000000000103e+00 8.559390000000000054e-01 1.616459000000000090e+00 -9.056000000000000161e-02 -4.166170000000000151e-01 5.079120000000000301e-01 -1.842805999999999944e+00 6.839279999999999804e-01 1.523649000000000031e+00 1.164811000000000041e+00 -2.365472000000000019e+00 -8.539609999999999701e-01 1.739068000000000058e+00 1.558672000000000057e+00 1.384077999999999919e+00 2.535789999999999988e-01 1.380830000000000113e-01 2.438760000000000094e-01 -5.053649999999999531e-01 -9.110759999999999970e-01 6.807779999999999943e-01 -4.681669999999999998e-01 -9.913499999999999535e-01 -8.251819999999999711e-01 3.393466999999999789e+00 -2.869981999999999811e+00 -1.457025000000000015e+00 -3.380942000000000114e+00 2.201715000000000089e+00 -2.054769999999999985e+00 3.532983000000000207e+00 1.471573999999999938e+00 5.359129999999999727e-01 -2.842899999999999872e-01 2.690210000000000101e-01 -3.644899999999999807e-01 -4.747489999999999766e-01 1.753230999999999984e+00 -1.347488999999999937e+00 7.001492999999999967e+00 2.860301000000000204e+00 -3.074008000000000074e+00 -2.321594000000000158e+00 -1.367131000000000096e+00 7.451259999999999550e-01 2.041796999999999862e+00 -2.443372000000000099e+00 1.151081000000000021e+00 -1.825406000000000084e+00 1.872068999999999983e+00 -1.491179000000000032e+00 1.129234000000000071e+00 2.047518000000000171e+00 -1.555479999999999918e-01 1.835569999999999924e+00 -1.815109000000000083e+00 -1.005911000000000000e+00 -1.341120000000000090e-01 -1.033247000000000027e+00 -1.146500000000000019e-01 -4.616649999999999920e-01 8.735469999999999624e-01 5.621650000000000258e-01 1.211049999999999960e+00 -1.444021999999999917e+00 -1.234158000000000088e+00 -7.145359999999999490e-01 -1.601642000000000010e+00 2.989899999999999780e-01 -1.263381000000000087e+00 -5.185880000000000489e-01 8.759379999999999944e-01 -8.119709999999999983e-01 -8.183519999999999683e-01 -1.013063000000000047e+00 -5.209420000000000162e-01 -4.895100000000000007e-01 -3.129799999999999943e-02 1.184755999999999920e+00 -9.579119999999999857e-01 -3.824310000000000209e-01 1.565320000000000045e-01 1.246453999999999951e+00 -1.648559000000000108e+00 -8.724140000000000228e-01 -2.485046000000000088e+00 -6.612780000000000324e-01 1.379080000000000084e+00 1.692500000000000115e-01 3.673040000000000194e-01 1.004189999999999916e+00 -6.090910000000000490e-01 -1.523111000000000104e+00 -8.832304000000000599e+00 -4.584681999999999924e+00 1.547441000000000066e+00 -6.818599999999999661e-02 2.781632000000000104e+00 2.620300000000000060e-02 -1.600993000000000110e+00 6.720140000000000002e-01 1.588472000000000106e+00 1.191079999999999917e+00 -1.754259999999999931e+00 2.047470000000000123e+00 -2.939083000000000112e+00 1.500199999999999978e+00 1.114778000000000047e+00 -5.501019999999999799e-01 1.796926999999999941e+00 -1.199546000000000001e+00 1.869560000000000111e+00 1.665122999999999909e+00 1.167057999999999929e+00 6.225370000000000070e-01 3.174699999999999744e-01 1.198245999999999922e+00 -1.166862000000000066e+00 3.159635999999999889e+00 1.949761999999999995e+00 -2.300495000000000179e+00 8.204960000000000031e-01 -1.779152000000000067e+00 3.337215000000000042e+00 2.140801999999999872e+00 6.037289999999999601e-01 -1.920719999999999927e-01 5.252539999999999987e-01 -8.256489999999999663e-01 -4.254229999999999956e-01 -2.901389999999999803e-01 2.198840999999999823e+00 -3.299599000000000171e+00 -3.898309999999999831e-01 2.752219999999999889e+00
3.040293000000000134e+00 -5.200299999999999923e-01 -1.992517000000000094e+00 -2.530899999999999817e-01 1.616139999999999910e+00 1.308637000000000050e+00 -1.366047999999999929e+00 7.603609999999999536e-01 -4.585949999999999749e-01 1.510229999999999961e+00 -9.598769999999999802e-01 1.404411000000000076e+00 2.301499000000000184e+00 2.341870000000000063e-01 -3.986210000000000031e-01 2.120687999999999906e+00 -1.630158999999999914e+00 1.412839999999999929e-01 1.551652999999999949e+00 -1.200814000000000048e+00 6.465999999999999526e-02 -7.183570000000000233e-01 1.643528000000000100e+00 1.001193999999999917e+00 -4.297150000000000136e-01 1.231549999999999923e+00 -3.128029999999999977e-01 -2.077745999999999871e+00 -1.846702999999999983e+00 5.834679999999999866e-01 7.611189999999999900e-01 -7.717699999999999561e-01 1.727789999999999881e-01 -1.688179000000000096e+00 -2.035576999999999970e+00 1.018883999999999901e+00 8.603308999999999429e+00 3.747128000000000014e+00 3.019433999999999951e+00 -9.730659999999999865e-01 -5.544229999999999992e-01 4.385620000000000074e-01 5.496729999999999672e-01 1.265964000000000089e+00 -6.884899999999999354e-02 1.698666000000000009e+00 -5.102219999999999533e-01 -7.404600000000000071e-02 -2.471337999999999813e+00 -9.789189999999999836e-01 2.177817000000000114e+00 3.052200000000000052e-02 1.266964999999999897e+00 -2.349549999999999805e+00 -1.080330000000000040e-01 -1.851609999999999978e+00 3.678800000000000125e-02 7.396390000000000464e-01 -1.857892000000000099e+00 8.570579999999999865e-01 1.127823999999999938e+00 6.457799999999999652e-02 -1.473422000000000009e+00 -1.045463000000000031e+00 1.507627999999999968e+00 -1.913143000000000038e+00 1.475060000000000038e+00 -8.534779999999999589e-01 6.229860000000000397e-01 -9.251920000000000144e-01 -5.304140000000000521e-01 -4.162359999999999616e+00 -1.889215000000000089e+00 8.423519999999999897e-01 -1.867636999999999992e+00 1.599596999999999936e+00 -1.677092999999999945e+00 2.358565000000000023e+00 7.556400000000000616e-02 -3.357280000000000264e-01 6.655250000000000332e-01 -4.343790000000000151e-01 1.000323999999999991e+00 2.193315999999999821e+00 -2.822720000000000229e-01 -9.183600000000000096e-02 -7.043300000000000116e-01 -6.094049999999999745e-01 1.654740000000000100e-01 -8.280110000000000525e-01 -5.484580000000000233e+00 -5.006874999999999964e+00 -3.391649000000000136e+00 -6.959509999999999863e-01 1.806929999999999925e+00 -5.480030000000000179e-01 -8.546460000000000168e-01 2.794233000000000189e+00 -5.517419999999999547e-01 -6.112830000000000208e-01 -6.072849999999999637e-01 -1.919969000000000037e+00 -1.029498999999999942e+00 -9.131860000000000532e-01 1.879361999999999977e+00 4.168950000000000156e-01 4.260430000000000050e-01 -3.843610000000000082e-01 -1.099688999999999917e+00 -1.319390999999999980e+00 -1.213940999999999937e+00 8.100979999999999848e-01 6.558310000000000528e-01 1.537433000000000050e+00 -9.517339999999999689e-01 1.552802000000000016e+00 5.039460000000000051e-01 -5.578299999999999925e-02 6.449329999999999785e-01 -2.684349999999999792e-01 -7.192629999999999857e-01 5.577779999999999960e-01 -4.182199999999999807e-02 6.247059999999999835e-01 2.524120000000000252e-01 1.280391999999999975e+00 -2.339893000000000001e+00 3.492080000000000184e-01 1.210013999999999923e+00 -3.801629999999999732e-01 1.220962000000000103e+00 -1.909348999999999963e+00 1.641094999999999970e+00 -4.607539999999999969e-01 -3.286669999999999869e-01 -5.613200000000000411e-01 6.444530000000000536e-01 1.833153000000000032e+00 -6.664069999999999716e-01 1.061999999999999923e-02 -6.710190000000000321e-01 4.357599999999999668e-02 2.516499999999999848e-01 1.523171000000000053e+00
-2.624490000000000212e+00 -7.170790000000000219e-01 1.002170000000000005e-01 -1.406349999999999989e+00 -2.328536999999999857e+00 -4.299760000000000248e-01 -3.739480000000000026e-01 -1.387264999999999970e+00 -5.869729999999999670e-01 -3.223250999999999866e+00 -1.697821999999999942e+00 -1.213988999999999985e+00 7.064160000000000439e-01 5.422789999999999555e-01 1.439386999999999972e+00 -1.529979999999999951e-01 -2.928850000000000064e-01 7.767589999999999772e-01 4.919789999999999996e-01 8.037189999999999612e-01 -2.965880000000000183e-01 1.254234000000000071e+00 -8.912330000000000529e-01 -2.574310000000000209e-01 -1.302095999999999920e+00 -1.693003999999999953e+00 -3.071810999999999847e+00 -1.425200999999999940e+00 4.480259999999999798e-01 4.663200000000000123e-01 -1.822877999999999998e+00 9.844060000000000032e-01 -2.573334000000000010e+00 2.439623000000000097e+00 -1.135480999999999963e+00 2.567015000000000047e+00 1.708439000000000041e+00 -1.148120000000000029e+00 -2.207250000000000045e-01 1.705629999999999979e+00 2.481504000000000154e+00 2.680927000000000060e+00 9.013400000000000301e-01 -7.774119999999999919e-01 -7.610599999999999588e-01 -2.121812999999999949e+00 2.944764000000000159e+00 -4.867739999999999845e-01 -2.144086999999999854e+00 2.388697000000000070e+00 -7.124310000000000365e-01 4.567620000000000013e-01 -2.034552999999999834e+00 -9.869500000000000495e-02 -1.690198000000000089e+00 -1.218142000000000058e+00 1.312089999999999923e-01 -1.989480000000000137e-01 -7.983749999999999458e-01 -7.119100000000000428e-01 3.787579999999999836e-01 2.552111000000000018e+00 -3.171869999999999967e-01 -1.652111000000000107e+00 7.295420000000000238e-01 -1.290779999999999983e-01 -7.872440000000000548e-01 -3.415030999999999928e+00 1.027355999999999936e+00 -6.859859999999999847e-01 -9.809210000000000429e-01 5.719060000000000255e-01 1.007744999999999891e+00 1.762038999999999911e+00 2.624535999999999980e+00 6.194669999999999899e-01 2.657349999999999990e-01 2.283000000000000029e-01 -1.619559999999999889e-01 -3.255009999999999848e-01 1.577995000000000037e+00 3.633969000000000005e+00 -1.543932000000000082e+00 9.212449999999999806e-01 1.755243000000000109e+00 -1.146673999999999971e+00 -3.148159999999999847e-01 -8.032230000000000203e-01 -1.211228999999999889e+00 -3.750509999999999788e+00 -7.090379999999999461e-01 1.805687000000000042e+00 1.205670000000000019e+00 -2.886279000000000039e+00 1.041163999999999978e+00 -2.201947000000000099e+00 -1.275768000000000013e+00 -2.868510000000000226e-01 1.430331000000000019e+00 -4.218740000000000268e-01 -1.755295999999999967e+00 -3.395600000000000007e-02 9.557330000000000547e-01 -3.510179999999999967e-01 2.073379999999999945e-01 -1.579733000000000054e+00 -2.912420000000000009e-01 -9.132470000000000310e-01 -1.782620000000000093e+00 -6.801080000000000458e-01 6.106110000000000149e-01 2.213224999999999998e+00 2.461872000000000060e+00 -2.729772999999999783e+00 1.202093000000000078e+00 1.833692000000000100e+00 -6.690249999999999808e-01 1.098311999999999955e+00 1.718107999999999969e+00 8.770949999999999580e-01 2.636334999999999873e+00 2.088959999999999984e-01 9.436740000000000128e-01 -1.062198999999999893e+00 -1.299406999999999979e+00 -3.163259000000000043e+00 4.548970999999999876e+00 1.969395000000000007e+00 -4.594520000000000270e-01 -1.370784999999999920e+00 9.254360000000000364e-01 -1.833771000000000040e+00 3.850750000000000006e-01 -2.038657000000000163e+00 2.091616000000000142e+00 4.059261000000000230e+00 2.153712000000000071e+00 1.186731999999999898e+00 -2.560040000000000093e-01 1.904480000000000062e-01 1.262447000000000097e+00 -2.375329999999999941e-01 1.234547000000000061e+00 3.009030000000000094e+00
-2.771899999999999920e-01 -4.435640000000000138e-01 -1.271271999999999958e+00 5.595430000000000126e-01 -1.912415999999999894e+00 -1.912949999999999928e-01 -2.350656999999999996e+00 3.631199999999999706e-02 -1.196134000000000031e+00 -1.122231999999999896e+00 1.844570000000000098e-01 -4.554989999999999872e-01 -6.113400000000000084e-02 1.176063000000000081e+00 -2.308450999999999809e+00 -4.404190000000000049e-01 3.876700000000000285e-02 4.846899999999999820e-02 -1.504326999999999970e+00 3.172260000000000080e-01 -7.824269999999999836e-01 3.176454000000000111e+00 -2.581430000000000113e-01 -6.719749999999999890e-01 -2.044780999999999960e+00 -9.437440000000000273e-01 9.287309999999999732e-01 -9.667280000000000317e-01 -2.266595000000000137e+00 -4.742529999999999801e-01 -4.097677000000000014e+00 -2.297524999999999817e+00 8.932630000000000292e-01 1.135137999999999980e+00 5.641800000000000287e-02 -6.480199999999999849e-02 8.975459999999999550e-01 -1.057325999999999988e+00 -3.612159999999999815e-01 -3.372513999999999790e+00 7.689300000000000024e-01 2.508890000000000065e+00 2.609043999999999919e+00 -8.483829999999999982e-01 -5.375229999999999730e-01 -1.417661000000000060e+00 -8.058499999999999552e-01 1.637790000000000079e+00 9.073299999999999699e-01 -1.005457999999999963e+00 -7.976099999999999857e-02 1.015192000000000094e+00 -3.250211999999999879e+00 2.391361999999999988e+00 -4.621850000000000125e-01 -9.975509999999999655e-01 1.941173000000000037e+00 2.482397000000000187e+00 1.240255000000000107e+00 1.631829999999999892e+00 -1.589326999999999934e+00 2.455792000000000197e+00 -1.458407000000000009e+00 -9.924119999999999608e-01 3.398029000000000188e+00 -1.215365999999999946e+00 -6.779159999999999631e-01 1.238040000000000029e+00 -9.468412000000000717e+00 2.753439999999999777e-01 1.074783000000000044e+00 -2.486019999999999897e-01 -1.621196999999999999e+00 2.673184000000000005e+00 -7.094150000000000178e-01 3.264768000000000114e+00 4.003479999999999817e-01 -2.683110000000000106e+00 -1.320739000000000107e+00 2.076400000000000121e-02 5.646020000000000483e-01 -3.183533999999999864e+00 -4.995220000000000216e-01 8.936500000000000554e-01 -9.828740000000000254e-01 7.862999999999999989e-01 2.526499999999999857e-01 1.634071000000000051e+00 9.551300000000000068e-02 -1.682363000000000053e+00 1.521946999999999939e+00 6.207179999999999920e-01 2.077856000000000147e+00 6.582740000000000258e-01 -9.424299999999999344e-02 7.695039999999999658e-01 -1.008294999999999941e+00 1.913930000000000076e-01 -3.821130999999999833e+00 2.063771000000000022e+00 -2.619972999999999885e+00 -2.088490000000000069e-01 1.386133999999999977e+00 -2.352548999999999779e+00 -1.912334999999999896e+00 2.163970000000000060e-01 4.279490000000000238e-01 -1.593249999999999944e-01 2.731208000000000080e+00 -4.705909999999999815e-01 -6.545299999999999729e-02 -8.826739999999999586e-01 9.760940000000000172e-01 -5.075990000000000224e-01 1.651545999999999959e+00 -5.762969999999999482e-01 1.858853000000000089e+00 2.529723999999999862e+00 2.512599999999999903e-02 1.509946999999999928e+00 3.444513999999999854e+00 2.693970000000000198e+00 -5.644860000000000433e-01 3.056299999999999989e-02 1.595164999999999944e+00 1.709920000000000051e-01 -7.044219999999999926e-01 -1.843331000000000053e+00 2.782249000000000194e+00 -3.103692000000000117e+00 -1.228260000000000046e-01 -1.902169999999999916e+00 2.191327999999999943e+00 1.170230000000000103e+00 -1.640698999999999907e+00 -8.703889999999999683e-01 8.560879999999999601e-01 1.374940000000000051e+00 6.750699999999999756e-02 5.746900000000000341e-01 1.171654099999999943e+01 -1.394762999999999975e+00 -4.265030000000000210e-01 6.890370000000000106e-01
1.090691999999999995e+00 2.318134000000000139e+00 1.609359999999999957e-01 1.499559000000000086e+00 2.624690000000000190e+00 -2.792169999999999930e-01 -1.296300999999999926e+00 -9.789250000000000451e-01 -2.788311999999999902e+00 -2.598469999999999946e-01 1.796991999999999923e+00 1.224172000000000038e+00 6.189430000000000209e-01 -1.060465999999999909e+00 -1.064815999999999985e+00 -1.220259999999999956e-01 1.379806000000000088e+00 -1.088095999999999952e+00 -8.490529999999999466e-01 -1.280183999999999989e+00 3.704009999999999803e-01 -2.512754000000000154e+00 -9.397699999999999942e-01 -2.950917000000000012e+00 -9.743300000000000571e-02 -1.419308999999999932e+00 -9.771779999999999911e-01 7.251220000000000443e-01 2.289975000000000094e+00 3.050704999999999778e+00 -3.505761000000000127e+00 -2.186287999999999787e+00 -1.585459999999999925e-01 -6.412619999999999987e-01 -1.132573999999999970e+00 5.040000000000000036e-02 -1.527552999999999939e+00 1.520521999999999929e+00 4.724499999999999811e-01 9.198140000000000205e-01 -1.768866999999999967e+00 -1.039109000000000060e+00 1.924523999999999901e+00 8.138299999999999701e-02 -1.523935999999999957e+00 9.634770000000000278e-01 1.347377999999999965e+00 -9.308650000000000535e-01 1.026620000000000088e+00 -6.684729999999999839e-01 6.422036000000000300e+00 1.695974000000000093e+00 -1.719179999999999875e-01 1.681926999999999950e+00 2.474537999999999904e+00 1.498579000000000105e+00 1.521182999999999952e+00 -8.774680000000000257e-01 -1.100108000000000086e+00 7.267899999999999361e-02 1.022315000000000085e+00 -6.263490000000000446e-01 -1.532751999999999892e+00 -7.674330000000000318e-01 -3.597399999999999903e-02 3.681300000000000128e-01 5.081100000000000200e-02 -2.612785999999999831e+00 8.854919999999999458e-01 -3.016432000000000002e+00 1.948558000000000012e+00 -2.383938000000000113e+00 5.754599999999999993e-02 1.885235999999999912e+00 1.582275000000000098e+00 -1.012509999999999938e-01 -1.338000000000000023e-01 7.077029999999999710e-01 -1.742461999999999955e+00 -1.306480000000000086e+00 1.481125999999999943e+00 -9.392829999999999790e-01 -4.630079999999999751e-01 1.310070000000000123e-01 -1.292813999999999908e+00 7.789709999999999690e-01 3.323729999999999740e-01 -1.890800000000000036e+00 2.069670000000000121e-01 2.463829000000000047e+00 -9.161110000000000086e-01 2.593831999999999915e+00 -2.380750000000000088e-01 4.293569999999999887e-01 8.310520000000000129e-01 -1.268491000000000035e+00 -1.573009999999999964e-01 -2.067518999999999885e+00 2.354515000000000136e+00 8.108119999999999772e-01 2.936440000000000161e-01 -2.253349000000000046e+00 7.155850000000000266e-01 1.200871000000000022e+00 -3.088509999999999867e-01 3.126037000000000177e+00 -8.948089999999999655e-01 1.074586000000000041e+00 2.556776000000000160e+00 4.760599999999999832e-01 2.347315000000000040e+00 -4.287839999999999985e-01 5.583369999999999722e-01 -2.200064999999999937e+00 1.517714000000000008e+00 -1.869042000000000092e+00 1.338554999999999939e+00 -3.448229999999999906e-01 -2.566593999999999820e+00 -1.325682000000000027e+00 -1.562030999999999947e+00 2.225140999999999813e+00 2.087500000000000119e-02 -5.358810000000000517e-01 -3.727759999999999962e+00 -7.956209999999999560e+00 -1.583617999999999970e+00 1.318032000000000092e+00 -3.590880000000000183e-01 -7.188350000000000017e-01 -9.022750000000000492e-01 2.577624000000000137e+00 1.066659999999999969e-01 1.233125000000000027e+00 2.811870000000000203e-01 1.151526999999999967e+00 -1.592014999999999958e+00 -6.953970000000000429e-01 1.595804000000000000e+00 -6.592449999999999699e-01 5.446839999999999460e-01 1.607105000000000006e+00 1.757254000000000094e+00 -1.952720000000000011e-01
1.012399999999999932e-02 2.694296000000000024e+00 1.853132000000000001e+00 1.472267999999999910e+00 7.410660000000000025e-01 -6.217999999999999569e-03 -1.354589000000000043e+00 -9.289129999999999887e-01 -2.729357999999999951e+00 -3.306801999999999797e+00 -2.541970000000000063e+00 -2.846020000000000216e-01 -1.788486999999999938e+00 -6.055900000000000172e-02 2.263628000000000196e+00 1.567585000000000006e+00 3.730330000000000035e-01 -4.216266000000000069e+00 9.713230000000000475e-01 2.122329000000000132e+00 4.896519999999999762e-01 1.098939000000000110e+00 -8.268309999999999826e-01 -1.045679999999999943e-01 5.374459999999999793e-01 1.513795000000000002e+00 3.957339999999999747e-01 -1.352046000000000081e+00 -3.023879999999999901e-01 9.441880000000000273e-01 -2.961460000000000203e-01 -2.159841000000000122e+00 -3.146649999999999725e-01 2.755929999999999769e-01 -7.582699999999999996e-01 6.745100000000000540e-01 -3.245020999999999933e+00 1.247632000000000074e+00 6.814449999999999674e-01 1.485908000000000007e+00 -7.461470000000000047e-01 -2.184724000000000110e+00 2.382893000000000150e+00 -2.745420000000000194e+00 2.096687999999999885e+00 1.393099999999999894e-01 1.589545999999999903e+00 -5.865460000000000118e-01 -2.327869000000000188e+00 -3.416799999999999699e-02 1.528404000000000096e+00 -7.426089999999999636e-01 6.703679999999999639e-01 -1.080092999999999970e+00 -2.096232000000000095e+00 1.046470999999999929e+00 1.866190000000000071e-01 -1.158846999999999960e+00 -2.830637999999999987e+00 4.773569999999999758e-01 1.164838000000000040e+00 2.602031999999999901e+00 -6.645119999999999916e-01 2.408039999999999903e-01 2.187340999999999980e+00 -3.544570000000000221e-01 2.723244000000000220e+00 -1.036210000000000048e-01 3.375600000000000267e-01 2.150288000000000199e+00 2.246170999999999918e+00 -1.032860000000000028e-01 2.926600000000000090e+00 -9.947660000000000391e-01 3.991859999999999853e-01 8.860449999999999715e-01 2.311913000000000107e+00 1.134646999999999961e+00 -2.496512000000000064e+00 -1.280027999999999944e+00 -5.126479999999999926e-01 -2.768459999999999810e-01 -7.724809999999999732e-01 1.423969999999999958e+00 5.851610000000000422e-01 1.037396999999999903e+00 -2.907643999999999895e+00 -1.582610000000000072e+00 -1.016715000000000035e+00 9.317199999999999926e-01 5.844209999999999683e-01 -1.184115999999999946e+00 1.725879999999999914e-01 -1.640159999999999951e-01 5.217089999999999783e-01 -1.912709999999999966e-01 -1.652646000000000059e+00 -8.826810000000000489e-01 3.173469999999999902e-01 -8.294439999999999591e-01 -1.733657000000000004e+00 1.587151999999999896e+00 -8.725299999999999723e-02 -1.089200000000000029e-01 -2.782680000000000153e-01 1.253548000000000107e+00 -1.023972000000000104e+00 8.458750000000000435e-01 4.305400000000000199e-02 3.130959999999999854e-01 2.837770000000000015e-01 -5.183839999999999559e-01 2.092547999999999853e+00 1.530953000000000008e+00 1.153364000000000056e+00 -4.811250000000000249e-01 -7.967999999999999527e-01 -2.671908000000000172e+00 1.035487000000000046e+00 7.252840000000000398e-01 9.823140000000000205e-01 -1.449348000000000081e+00 -6.063739999999999686e-01 1.451551000000000036e+00 -1.809495999999999993e+00 9.547799999999999343e-02 -2.133992999999999807e+00 -8.679339999999999833e-01 -1.514439999999999953e-01 6.616030000000000522e-01 -1.437199999999999936e-02 -3.879299999999999971e-01 2.208309999999999995e-01 -1.561438000000000104e+00 -6.400080000000000213e-01 6.189090000000000202e+00 3.634494999999999809e+00 -1.346275000000000110e+00 -2.613090000000000135e+00 -1.246653999999999929e+00 -9.903960000000000541e-01 -4.627950000000000119e-01 4.857480000000000131e-01 6.145699999999999774e-02
8.538919999999999844e-01 -7.558700000000000419e-01 3.568773999999999891e+00 -1.283310000000000006e-01 -3.208131999999999984e+00 2.329060000000000130e+00 4.110840000000000050e-01 2.237232999999999805e+00 -2.785416999999999810e+00 -1.052507000000000081e+00 2.673713999999999924e+00 -3.927950000000000053e-01 -3.413478000000000012e+00 1.244501999999999997e+00 -1.121715000000000018e+00 1.798124000000000056e+00 1.374268999999999963e+00 -8.621180000000000510e-01 -1.189041999999999932e+00 1.364199999999999961e-02 -1.478639999999999954e+00 1.368692000000000020e+00 -1.484364000000000017e+00 5.678379999999999539e-01 1.508995000000000086e+00 -9.361009999999999609e-01 -7.651130000000000431e-01 -8.219039999999999679e-01 2.742890000000000050e-01 2.320918999999999954e+00 -9.846000000000000585e-02 1.909054000000000029e+00 -3.159797999999999885e+00 5.199529999999999985e-01 2.392247999999999930e+00 1.225430000000000019e+00 4.641290000000000138e-01 4.323659999999999726e-01 2.465699999999999836e-02 -1.115139000000000102e+00 6.482670000000000377e-01 2.824799999999999880e-02 -5.893479999999999830e-01 -7.076310000000000100e-01 3.764589999999999881e-01 -1.684470000000000134e-01 -6.332719999999999461e-01 2.995300000000000046e-02 -2.564528000000000141e+00 -1.097002999999999950e+00 2.703200000000000047e-01 9.514979999999999549e-01 -9.851100000000000412e-01 -4.765820000000000056e-01 -1.239189000000000096e+00 4.899720000000000186e-01 1.429179999999999895e+00 3.435839999999999783e+00 1.165162000000000031e+00 -3.177707999999999977e+00 -5.553390000000000271e-01 -2.369032999999999944e+00 1.427950000000000053e+00 1.039892000000000039e+00 -1.775082999999999966e+00 8.081519999999999815e-01 5.379059999999999953e-01 1.112986999999999949e+00 -4.661469999999999780e-01 -8.948970000000000535e-01 -6.717689999999999495e-01 9.671349999999999669e-01 3.742329999999999823e-01 3.055877000000000177e+00 -2.181817000000000117e+00 6.160799999999999610e-01 2.801317000000000057e+00 2.317037000000000013e+00 9.273419999999999996e-01 3.603709999999999969e-01 -5.147209999999999841e-01 1.103761999999999910e+00 2.624210000000000154e-01 -1.787423999999999902e+00 1.920199999999999907e+00 -4.237929999999999753e-01 -2.536749999999999838e-01 3.490934000000000204e+00 1.009120000000000017e-01 -1.508819999999999883e-01 -1.033600000000000074e+00 1.930638000000000076e+00 -5.468009999999999815e-01 -8.469219999999999526e-01 1.254920000000000035e+00 -1.829498000000000069e+00 2.168108999999999842e+00 -1.864954000000000001e+00 3.274099999999999788e-01 -1.850659999999999972e+00 -1.468812000000000006e+00 8.293939999999999646e-01 -5.683070000000000066e-01 8.019870000000000054e-01 9.964870000000000116e-01 -1.057870000000000088e+00 -2.020858000000000043e+00 1.159842000000000040e+00 -1.057987999999999928e+00 6.231379999999999697e-01 2.386040000000000105e-01 -1.789336999999999955e+00 -2.246367999999999920e+00 7.107860000000000289e-01 1.007920000000000066e-01 -1.012172000000000072e+00 1.083353999999999928e+00 7.186540000000000150e-01 -8.670679999999999499e-01 -2.107807999999999904e+00 1.139504000000000072e+00 -7.132220000000000226e-01 1.645267999999999953e+00 -2.404209999999999958e-01 6.352189999999999781e-01 -2.041300000000000059e-01 -6.501230000000000064e-01 -1.419783000000000017e+00 4.199890000000000012e-01 1.529962000000000044e+00 6.377389999999999448e-01 -9.803129999999999900e-01 -3.161988000000000021e+00 1.465783999999999976e+00 1.511741999999999919e+00 3.478160000000000140e-01 -2.652220999999999940e+00 -2.095740999999999854e+00 7.625150000000000539e-01 6.343929999999999847e-01 1.386258999999999908e+00 -2.002081000000000000e+00 -1.219804000000000110e+00 -6.614069999999999672e-01