6.074164957999999892e+00 0.000000000000000000e+00 0.000000000000000000e+00 -1.496855387999999953e+00 8.105049260999999561e+00 0.000000000000000000e+00 -1.641375768000000068e+00 2.489703959999999938e+00 7.597072713000000199e+00
6.276782505999999984e+00 0.000000000000000000e+00 0.000000000000000000e+00 -1.543176407000000028e+00 7.919237651999999628e+00 0.000000000000000000e+00 -1.496273347000000031e+00 2.855019661000000042e+00 7.409571705000000286e+00
6.081790351999999622e+00 0.000000000000000000e+00 0.000000000000000000e+00 -1.416440997000000035e+00 8.063613958999999554e+00 0.000000000000000000e+00 -1.653768370000000099e+00 2.452989355999999788e+00 7.663436217000000106e+00
6.055383048000000379e+00 0.000000000000000000e+00 0.000000000000000000e+00 -1.665586954999999980e+00 8.095204456999999465e+00 0.000000000000000000e+00 -1.637234601000000067e+00 2.872658153999999797e+00 7.735103078999999937e+00
6.036433062999999599e+00 0.000000000000000000e+00 0.000000000000000000e+00 -1.412091216999999954e+00 7.912118583999999899e+00 0.000000000000000000e+00 -1.373580306999999889e+00 2.793077471999999783e+00 7.421709911999999854e+00
6.326078000999999951e+00 0.000000000000000000e+00 0.000000000000000000e+00 -1.612553936999999937e+00 7.961286507999999706e+00 0.000000000000000000e+00 -1.580990614999999933e+00 2.730422363999999824e+00 7.544378805000000021e+00
6.130425926000000025e+00 0.000000000000000000e+00 0.000000000000000000e+00 -1.589457684999999953e+00 8.196549254000000673e+00 0.000000000000000000e+00 -1.403855225000000040e+00 2.815143765000000187e+00 7.636320715000000092e+00
6.265032484999999873e+00 0.000000000000000000e+00 0.000000000000000000e+00 -1.579630107000000061e+00 7.855117745000000262e+00 0.000000000000000000e+00 -1.567982796999999984e+00 2.851084538999999918e+00 7.437903511000000023e+00
6.311367304000000011e+00 0.000000000000000000e+00 0.000000000000000000e+00 -1.458165911999999897e+00 8.033182980999999501e+00 0.000000000000000000e+00 -1.452875287999999987e+00 2.877455632000000207e+00 7.506005561000000270e+00
6.256229153999999681e+00 0.000000000000000000e+00 0.000000000000000000e+00 -1.533807501000000073e+00 7.950675290000000395e+00 0.000000000000000000e+00 -1.621864420000000084e+00 2.763011876000000200e+00 7.453474631999999822e+00
6.103997351000000293e+00 0.000000000000000000e+00 0.000000000000000000e+00 -1.406141124999999992e+00 7.881598906999999876e+00 0.000000000000000000e+00 -1.675945275999999984e+00 2.350734769999999862e+00 7.623933766999999584e+00
6.258160389000000379e+00 0.000000000000000000e+00 0.000000000000000000e+00 -1.471298902000000020e+00 7.796490709000000408e+00 0.000000000000000000e+00 -1.611599328000000053e+00 2.440745187000000094e+00 7.511495489999999720e+00
6.115775157999999934e+00 0.000000000000000000e+00 0.000000000000000000e+00 -1.577703984000000004e+00 8.051548674999999378e+00 0.000000000000000000e+00 -1.563135793000000051e+00 2.831590652000000041e+00 7.648659981999999857e+00
5.975077993000000198e+00 0.000000000000000000e+00 0.000000000000000000e+00 -1.637513087999999950e+00 7.968942878000000007e+00 0.000000000000000000e+00 -1.614949967999999902e+00 2.774956815999999993e+00 7.539095292999999920e+00
6.300008838000000111e+00 0.000000000000000000e+00 0.000000000000000000e+00 -1.569596962000000095e+00 7.907391446000000101e+00 0.000000000000000000e+00 -1.557015814999999970e+00 2.784873188999999805e+00 7.340414251000000334e+00
6.211114435999999905e+00 0.000000000000000000e+00 0.000000000000000000e+00 -1.397454572000000006e+00 7.929891259999999775e+00 0.000000000000000000e+00 -1.390876253999999923e+00 2.659418343000000018e+00 7.428569648999999941e+00
6.189905712999999920e+00 0.000000000000000000e+00 0.000000000000000000e+00 -1.543864396000000028e+00 8.052850766000000604e+00 0.000000000000000000e+00 -1.704294809000000077e+00 2.641516664000000070e+00 7.426421741000000409e+00
6.282255340999999937e+00 0.000000000000000000e+00 0.000000000000000000e+00 -1.789009008000000067e+00 7.936080615999999921e+00 0.000000000000000000e+00 -1.782645629999999981e+00 2.514407371999999974e+00 7.525136409999999998e+00
6.091610371999999884e+00 0.000000000000000000e+00 0.000000000000000000e+00 -1.418067074000000094e+00 8.070368523999999155e+00 0.000000000000000000e+00 -1.737726662000000033e+00 2.432658101999999989e+00 7.680364759999999791e+00
6.026906084000000163e+00 0.000000000000000000e+00 0.000000000000000000e+00 -1.701797761999999992e+00 8.123169933999999870e+00 0.000000000000000000e+00 -1.671621256999999972e+00 2.834699408000000087e+00 7.635930566999999947e+00
6.167032840000000071e+00 0.000000000000000000e+00 0.000000000000000000e+00 -1.657114404999999957e+00 8.160235122999999646e+00 0.000000000000000000e+00 -1.377597127999999893e+00 2.784660945000000165e+00 7.631565035999999580e+00
6.230296956000000108e+00 0.000000000000000000e+00 0.000000000000000000e+00 -1.572467854000000109e+00 8.105654467999999113e+00 0.000000000000000000e+00 -1.530376811000000004e+00 2.688807302999999926e+00 7.447804747000000170e+00
6.236863750000000373e+00 0.000000000000000000e+00 0.000000000000000000e+00 -1.513044218999999968e+00 8.058238648999999754e+00 0.000000000000000000e+00 -1.691529309999999953e+00 2.691344294999999942e+00 7.557724176999999877e+00
6.020423350999999812e+00 0.000000000000000000e+00 0.000000000000000000e+00 -1.413043749000000071e+00 7.819461969999999873e+00 0.000000000000000000e+00 -1.445181307999999998e+00 2.507128419999999913e+00 7.456020769000000215e+00
6.214627940999999822e+00 0.000000000000000000e+00 0.000000000000000000e+00 -1.459475475000000078e+00 7.860594427999999745e+00 0.000000000000000000e+00 -1.636531224999999923e+00 2.476828273000000191e+00 7.536669780000000429e+00
6.243082696000000098e+00 0.000000000000000000e+00 0.000000000000000000e+00 -1.513870993999999914e+00 8.125387852999999438e+00 0.000000000000000000e+00 -1.624298953999999906e+00 2.738055503000000002e+00 7.528719983000000227e+00
6.189924001999999703e+00 0.000000000000000000e+00 0.000000000000000000e+00 -1.566786430000000063e+00 8.044631407000000678e+00 0.000000000000000000e+00 -1.549557861999999897e+00 2.917049737000000142e+00 7.625888856000000438e+00
6.274423228999999935e+00 0.000000000000000000e+00 0.000000000000000000e+00 -1.590953255999999927e+00 8.055686845000000318e+00 0.000000000000000000e+00 -1.420827515000000041e+00 2.764785497000000092e+00 7.589822836999999822e+00
6.316523441000000183e+00 0.000000000000000000e+00 0.000000000000000000e+00 -1.388989792000000056e+00 8.042314237999999449e+00 0.000000000000000000e+00 -1.397125712000000020e+00 2.799322502999999962e+00 7.442624202000000189e+00
6.204466555999999855e+00 0.000000000000000000e+00 0.000000000000000000e+00 -1.361238665999999986e+00 7.982719288000000191e+00 0.000000000000000000e+00 -1.352651400000000059e+00 2.615969177000000201e+00 7.459303614999999610e+00
6.322368900999999930e+00 0.000000000000000000e+00 0.000000000000000000e+00 -1.626809881000000013e+00 7.973522484000000077e+00 0.000000000000000000e+00 -1.591498102999999942e+00 2.736262951000000054e+00 7.529826135999999615e+00
6.078276123000000197e+00 0.000000000000000000e+00 0.000000000000000000e+00 -1.578740932999999957e+00 8.112528151999999437e+00 0.000000000000000000e+00 -1.424874803000000023e+00 2.762242250999999982e+00 7.567824798000000186e+00
6.283968360000000253e+00 0.000000000000000000e+00 0.000000000000000000e+00 -1.580927721999999980e+00 8.018548171999999141e+00 0.000000000000000000e+00 -1.585018915000000028e+00 2.609401902000000106e+00 7.522985347999999739e+00
6.249056807999999741e+00 0.000000000000000000e+00 0.000000000000000000e+00 -1.581405343999999991e+00 7.968458602000000113e+00 0.000000000000000000e+00 -1.655856486000000016e+00 2.727758376999999790e+00 7.395171758000000040e+00
5.974104511000000173e+00 0.000000000000000000e+00 0.000000000000000000e+00 -1.611814789000000081e+00 8.151048774999999580e+00 0.000000000000000000e+00 -1.389171463000000051e+00 2.835125103000000202e+00 7.616031418999999580e+00
6.175177942000000364e+00 0.000000000000000000e+00 0.000000000000000000e+00 -1.461987737000000065e+00 7.842038933000000434e+00 0.000000000000000000e+00 -1.715692408000000002e+00 2.434028248000000172e+00 7.524044155000000345e+00
6.035545211999999715e+00 0.000000000000000000e+00 0.000000000000000000e+00 -1.644445061999999957e+00 8.061098205000000405e+00 0.000000000000000000e+00 -1.617221838000000078e+00 2.823959418999999915e+00 7.653746781999999804e+00
6.078041932999999730e+00 0.000000000000000000e+00 0.000000000000000000e+00 -1.610297386000000053e+00 8.039106822000000818e+00 0.000000000000000000e+00 -1.459354472000000014e+00 2.683781930999999954e+00 7.480796708999999822e+00
6.113954370000000083e+00 0.000000000000000000e+00 0.000000000000000000e+00 -1.637054299999999962e+00 8.091445044000000308e+00 0.000000000000000000e+00 -1.624612154999999891e+00 2.883276470000000202e+00 7.697244991999999897e+00
5.996665769999999895e+00 0.000000000000000000e+00 0.000000000000000000e+00 -1.632533989999999990e+00 8.144390819999999920e+00 0.000000000000000000e+00 -1.359122855000000074e+00 2.838608063000000126e+00 7.616970436999999983e+00
6.108546784999999701e+00 0.000000000000000000e+00 0.000000000000000000e+00 -1.614152196999999900e+00 8.092774528999999717e+00 0.000000000000000000e+00 -1.410771098999999973e+00 2.738356968999999808e+00 7.574966540000000137e+00
6.120418861000000099e+00 0.000000000000000000e+00 0.000000000000000000e+00 -1.463115460999999895e+00 8.027417027000000260e+00 0.000000000000000000e+00 -1.420026543000000085e+00 2.839962395999999778e+00 7.523595578000000117e+00
6.057301941999999606e+00 0.000000000000000000e+00 0.000000000000000000e+00 -1.430245027000000002e+00 8.294587106999999904e+00 0.000000000000000000e+00 -1.696692765999999963e+00 2.534921780999999985e+00 7.715185401000000276e+00
6.290413055000000142e+00 0.000000000000000000e+00 0.000000000000000000e+00 -1.412535945999999987e+00 7.971160991999999723e+00 0.000000000000000000e+00 -1.416392070999999975e+00 2.763278391000000056e+00 7.506807560999999573e+00
6.117876740999999896e+00 0.000000000000000000e+00 0.000000000000000000e+00 -1.437630087999999917e+00 8.272995858999999896e+00 0.000000000000000000e+00 -1.731406940000000061e+00 2.536491907999999906e+00 7.748500315000000249e+00
6.250384781000000167e+00 0.000000000000000000e+00 0.000000000000000000e+00 -1.513272394999999992e+00 8.058826635000000849e+00 0.000000000000000000e+00 -1.495241448000000029e+00 2.842951376999999891e+00 7.587085826000000033e+00
6.157471778999999756e+00 0.000000000000000000e+00 0.000000000000000000e+00 -1.713369737999999920e+00 8.004009373000000593e+00 0.000000000000000000e+00 -1.689251140000000095e+00 2.399536780000000036e+00 7.650606297999999583e+00
6.017344776999999922e+00 0.000000000000000000e+00 0.000000000000000000e+00 4.650348699000000252e+00 7.990795280000000389e+00 0.000000000000000000e+00 4.437617271999999780e+00 2.455971535999999844e+00 7.552300253000000296e+00
6.139340297000000390e+00 0.000000000000000000e+00 0.000000000000000000e+00 -1.651444399999999924e+00 8.060761830000000572e+00 0.000000000000000000e+00 -1.448196478000000065e+00 2.633656756999999793e+00 7.515525071999999973e+00
6.205494243000000409e+00 0.000000000000000000e+00 0.000000000000000000e+00 -1.483620847999999937e+00 8.162500354000000513e+00 0.000000000000000000e+00 -1.738441571999999935e+00 2.621605086999999834e+00 7.650562882000000009e+00
