-2.736194267700000182e+02
-2.735881187300000192e+02
-2.729060689799999864e+02
-2.733298406900000259e+02
-2.752592177899999797e+02
-2.760250544599999785e+02
-2.743458468900000184e+02
-2.731154510000000073e+02
-2.736026187200000095e+02
-2.729222358999999756e+02
-2.740392621299999973e+02
-2.748157880200000136e+02
-2.772141535900000235e+02
-2.732694971799999735e+02
-2.733286975099999836e+02
-2.735632651600000145e+02
-2.738226506199999903e+02
-2.758335269300000050e+02
-2.734448113700000249e+02
-2.733273733600000241e+02
-2.742312808600000267e+02
-2.738872284000000263e+02
-2.736416450899999973e+02
-2.760495881300000178e+02
-2.769882447400000274e+02
-2.739567747400000144e+02
-2.743406726499999877e+02
-2.738105795100000250e+02
-2.738330545800000095e+02
-2.740782433200000128e+02
-2.759051215800000136e+02
-2.773992167999999765e+02
-2.753413553899999897e+02
-2.738096211399999902e+02
-2.745242498800000135e+02
-2.743909821600000214e+02
-2.738661848500000247e+02
-2.767033139900000265e+02
-2.730119737900000132e+02
-2.751090095399999882e+02
-2.759242931100000078e+02
-2.764454023000000120e+02
-2.728702327600000217e+02
-2.732317000499999722e+02
-2.736298882199999980e+02
-2.737669681699999842e+02
-2.753474992199999747e+02
-2.763766020099999992e+02
-2.765842114899999729e+02
-2.725043423399999938e+02
