2.352196000000000176e+00 1.398889999999999967e+00 2.263727999999999962e+00 -3.104773999999999923e+00 1.331426999999999916e+00 1.612244000000000010e+00 -1.206434000000000006e+00 1.445110000000000006e-01 4.858379999999999921e-01 -3.470050000000000079e-01 2.948169999999999957e-01 -1.494976000000000083e+00 1.256280999999999981e+00 -3.001945999999999781e+00 1.175049999999999983e-01 -1.236290000000000028e-01 1.553876999999999953e+00 -4.620203000000000060e+00 -4.677939999999999876e-01 -7.346570000000000045e-01 8.717230000000000256e-01 9.635199999999999321e-02 -5.778389999999999915e-01 -4.192847999999999686e+00 -4.269899999999999807e-01 2.605879999999999974e+00 9.749839999999999618e-01 1.669116000000000044e+00 -5.369380000000000264e-01 9.861100000000000421e-02 -1.750672999999999924e+00 7.115169999999999551e-01 1.077720000000000067e-01 2.769436999999999927e+00 2.141868999999999801e+00 7.287519999999999554e-01 1.612278000000000100e+00 2.155978999999999868e+00 -3.162380000000000191e-01 -1.704576000000000091e+00 -1.139148999999999967e+00 2.339129999999999932e+00 -1.442910000000000026e-01 3.517999999999999860e-03 2.028699999999999948e-01 -5.903960000000000319e-01 1.530259999999999954e+00 1.897837999999999914e+00 -6.624139999999999473e-01 -3.696900000000000186e-01 -2.530439999999999912e-01 -6.178940000000000543e-01 -1.932420000000000027e+00 -2.562787000000000148e+00 -1.665971000000000091e+00 1.227743999999999946e+00 2.009060000000000012e-01 3.024218999999999991e+00 -8.562130000000000019e-01 -3.952089999999999770e-01 -2.410800000000000096e-02 -8.906150000000000455e-01 4.494208999999999676e+00 4.752680000000000238e-01 -7.281680000000000375e-01 2.356937999999999978e+00 3.785279999999999756e-01 -3.532239999999999824e-01 -1.051943999999999990e+00 -1.849210000000000020e-01 4.126730000000000120e-01 7.338489999999999736e-01 -3.584069999999999756e-01 1.273886999999999992e+00 1.086450000000000055e-01 2.692490000000000161e-01 -1.081809000000000021e+00 8.059800000000000297e-01 -1.542918000000000012e+00 -1.057825999999999933e+00 -9.290460000000000385e-01 2.631626999999999938e+00 -1.351369000000000042e+00 -2.644912000000000152e+00 1.726768999999999998e+00 6.790950000000000042e-01 -1.580711999999999895e+00 -3.821399999999999797e-02 -2.763919000000000015e+00 -1.160981000000000041e+00 -1.504791999999999907e+00 3.910000000000000142e-01 6.450479999999999547e-01 -1.153933000000000098e+00 2.586820000000000230e-01 -1.006279999999999952e-01 1.336254000000000053e+00 -5.429019999999999957e-01 -1.331040000000000001e-01 -9.655299999999999994e-01 -1.152315999999999896e+00 1.006899999999999983e-02 -1.011911999999999923e+00 9.553760000000000030e-01 3.799950000000000272e-01
-9.461209999999999898e-01 2.831609999999999960e-01 -3.687090000000000090e-01 4.307170000000000165e-01 -2.375790000000000124e-01 4.561400000000000177e-02 -1.766704999999999970e+00 1.859625000000000083e+00 -2.134449999999999958e-01 2.657590000000000230e-01 -3.468719999999999803e+00 -1.511136999999999952e+00 1.599015000000000075e+00 3.489169999999999772e-01 2.700155000000000083e+00 2.396593000000000195e+00 6.871450000000000058e-01 -1.240353000000000039e+00 -1.585630000000000095e-01 -7.671519999999999451e-01 -2.881421000000000010e+00 2.384726999999999819e+00 -4.862290999999999919e+00 2.598155000000000214e+00 1.707893000000000105e+00 -1.617204000000000086e+00 6.698699999999999655e-01 -2.595370000000000177e-01 1.119340999999999919e+00 -1.508356999999999948e+00 1.913399000000000072e+00 -9.653800000000000159e-01 -3.339379000000000097e+00 -1.705372000000000110e+00 2.092128000000000210e+00 4.332799999999999846e-02 1.786744000000000110e+00 -3.575809999999999822e-01 2.367043999999999926e+00 -1.211622999999999895e+00 1.805759999999999865e-01 -1.737579999999999958e-01 1.340000000000000045e-04 1.034209999999999990e-01 -8.577420000000000044e-01 -1.668422000000000072e+00 -1.771347999999999923e+00 3.498439999999999883e-01 4.262599999999999723e-01 -7.162730000000000485e-01 -7.764300000000000368e-02 3.242979999999999752e-01 1.712800000000000086e-02 2.296690000000000120e-01 4.524130000000000096e-01 6.691169999999999618e-01 1.897194000000000047e+00 1.546863000000000099e+00 5.176660000000000039e+00 -2.056172999999999806e+00 1.041984000000000021e+00 8.787869999999999848e-01 1.538923999999999959e+00 2.090359999999999996e-01 -1.484570000000000056e-01 -2.488726999999999911e+00 -3.498158999999999796e+00 -2.194920000000000204e+00 -8.244329999999999714e-01 -1.645683000000000007e+00 2.921154000000000028e+00 5.406199999999999894e-02 3.508040000000000047e-01 -2.179602000000000039e+00 6.403959999999999653e-01 -1.233938999999999897e+00 1.695030999999999954e+00 1.114527999999999963e+00 -1.977589999999999959e+00 -3.301729999999999943e-01 2.759144000000000041e+00 -7.505309999999999482e-01 3.019372000000000167e+00 -4.757460000000000022e-01 -8.513929999999999554e-01 -2.569195000000000118e+00 -3.846220000000000194e-01 9.485310000000000130e-01 -3.060840000000000227e-01 1.694647000000000014e+00 -2.760619999999999852e+00 -1.849199999999999955e+00 -1.229449999999999932e+00 -2.691339999999999844e-01 1.691729999999999901e-01 7.541560000000000485e-01 1.632924000000000042e+00 1.113056999999999963e+00 7.521889999999999965e-01 1.230275999999999925e+00 1.275748000000000104e+00 -2.936710000000000154e-01 5.502200000000000146e-02 7.316169999999999618e-01 -2.841529999999999889e-01
3.048343000000000025e+00 9.272240000000000482e-01 6.262109999999999621e-01 3.060160000000000102e-01 1.215300000000000061e-02 9.590640000000000276e-01 -3.412700000000000178e-01 -1.105795000000000083e+00 -1.521749000000000018e+00 -4.636279999999999846e-01 -7.297719999999999763e-01 -6.976719999999999589e-01 7.265759999999999996e-01 2.318414000000000197e+00 1.111931000000000003e+00 -1.388060000000000127e-01 -1.132765000000000022e+00 1.958928000000000003e+00 1.074699999999999961e-02 -5.812359999999999749e-01 9.715049999999999519e-01 -3.053306000000000076e+00 3.860733000000000192e+00 7.037189999999999834e-01 -7.741740000000000288e-01 1.363377999999999979e+00 1.808612000000000108e+00 1.304521000000000042e+00 4.750300000000000078e-01 -4.024269999999999792e-01 1.894733000000000001e+00 1.092250000000000026e-01 -1.740164999999999962e+00 -2.872029999999999861e-01 -5.973819999999999686e-01 6.795039999999999969e-01 4.609900000000000109e-02 -2.106332000000000093e+00 -6.942099999999999660e-02 1.337752999999999970e+00 -8.115780000000000216e-01 6.730899999999999661e-01 -1.266078999999999954e+00 -1.150905000000000067e+00 2.384148999999999852e+00 -2.080281999999999965e+00 1.159861999999999949e+00 -1.220882000000000023e+00 -3.610653000000000112e+00 2.868932000000000038e+00 1.655288000000000093e+00 -2.158069999999999933e+00 -1.343615000000000004e+00 3.607110000000000039e-01 6.847199999999999953e-01 -1.219278000000000084e+00 -2.041621000000000130e+00 -1.401439999999999908e-01 -1.832179999999999920e-01 1.912763999999999909e+00 -5.411899999999999489e-01 -2.373889999999999889e-01 3.012710000000000110e-01 8.571670000000000122e-01 -6.042389999999999706e-01 -2.515538999999999970e+00 4.996650000000000258e-01 -3.024490000000000123e+00 3.523000000000000090e-03 -1.031657000000000046e+00 -1.118686000000000069e+00 -1.363957000000000086e+00 2.672499000000000180e+00 -8.379929999999999879e-01 -2.086965999999999877e+00 3.815657999999999994e+00 1.797590000000000021e-01 -1.764634000000000036e+00 1.423272000000000093e+00 4.924499999999999988e-01 4.162080000000000224e-01 -8.714830000000000076e-01 1.059984000000000037e+00 -2.151743000000000183e+00 -4.248609999999999887e-01 1.528715999999999964e+00 -4.893629999999999924e-01 -6.126310000000000366e-01 3.434309999999999863e-01 1.836308999999999969e+00 -1.104346999999999968e+00 5.904380000000000184e-01 -2.480262000000000189e+00 -3.397390000000000132e-01 -5.670809999999999462e-01 3.439694999999999947e+00 -7.843729999999999869e-01 -9.178699999999999637e-01 -4.061000000000000165e-01 -2.135400000000000145e-02 2.230725000000000069e+00 -1.074648000000000048e+00 1.417478000000000016e+00 -1.250828000000000051e+00 2.246620000000000006e-01
2.154240000000000155e+00 1.982639999999999958e-01 2.850890000000000146e+00 -3.696740000000000026e-01 -2.700623999999999914e+00 1.874867000000000061e+00 6.505370000000000319e-01 7.135820000000000496e-01 9.889449999999999630e-01 -8.007980000000000098e-01 1.875629999999999908e+00 -3.334449999999999914e-01 1.247544999999999904e+00 1.813180000000000014e+00 5.152930000000000010e-01 8.834899999999999975e-01 2.315517999999999965e+00 -2.685489999999999822e-01 -4.473699999999999899e-01 -1.433321000000000067e+00 -2.641599999999999851e-02 -1.001989999999999964e-01 -1.054618000000000055e+00 -1.194510000000000016e-01 -1.509975999999999985e+00 2.710939000000000210e+00 3.318050000000000166e-01 1.199152999999999913e+00 -2.474800000000000111e+00 2.588900000000000090e-01 2.367207000000000061e+00 -1.606259000000000103e+00 -1.902089999999999892e-01 2.127546000000000159e+00 -4.628530000000000144e-01 -2.981289999999999774e-01 1.078697000000000017e+00 -9.202749999999999542e-01 1.591852999999999962e+00 -7.173559999999999937e-01 1.133863000000000065e+00 5.579450000000000243e-01 -4.898150000000000004e-01 1.396206000000000058e+00 1.982629999999999948e-01 -9.457160000000000011e-01 -7.541379999999999750e-01 1.185030000000000028e+00 8.450870000000000326e-01 -1.535978999999999983e+00 3.458849999999999980e-01 2.646439999999999904e-01 9.901769999999999738e-01 -3.656449999999999978e-01 -1.813843000000000094e+00 -3.995449999999999835e-01 -1.148681000000000063e+00 1.919256000000000073e+00 2.831777000000000211e+00 -2.748970000000000025e-01 -3.219008999999999787e+00 -2.324641000000000179e+00 -2.876282999999999923e+00 1.703880000000000117e-01 3.188206999999999791e+00 1.989990000000000092e-01 -2.850318999999999825e+00 -1.702566999999999942e+00 -8.203970000000000429e-01 2.063679000000000041e+00 -8.316369999999999596e-01 -2.260270000000000057e-01 7.469179999999999708e-01 -9.892189999999999594e-01 -1.042635999999999896e+00 -2.857850000000000112e-01 -3.467540000000000067e-01 1.648781999999999970e+00 -1.567598000000000047e+00 1.283468999999999971e+00 -1.272149999999999948e-01 4.669420000000000237e-01 4.346780000000000088e-01 -2.534399999999999986e-01 -3.787059000000000175e+00 5.776799999999999713e-01 -1.632346999999999992e+00 1.848184999999999967e+00 -1.002388999999999974e+00 5.061989999999999545e-01 -3.203186000000000089e+00 -7.121199999999999752e-01 -3.218974999999999920e+00 5.479060000000000041e-01 1.677129000000000092e+00 1.112681000000000031e+00 -7.087560000000000526e-01 -2.081583000000000183e+00 3.442040000000000100e-01 9.100939999999999586e-01 1.253006000000000064e+00 -1.385248999999999953e+00 1.324943999999999900e+00 -1.059981000000000062e+00 9.745700000000000196e-02
-7.227440000000000531e-01 2.560649999999999871e-01 4.708149999999999835e-01 9.410199999999999676e-01 -8.467029999999999834e-01 -1.569951000000000096e+00 -1.272570000000000090e-01 3.617846000000000117e+00 1.842519000000000018e+00 -8.141460000000000363e-01 -6.660920000000000174e-01 -2.092070000000000096e+00 1.578411999999999926e+00 1.359237000000000029e+00 -1.248893999999999949e+00 3.432569999999999788e-01 2.168110000000000037e-01 -1.915866000000000069e+00 -2.552499999999999908e-02 -1.634368000000000043e+00 -9.823570000000000357e-01 1.048994999999999900e+00 9.050230000000000219e-01 1.563312999999999953e+00 2.741995000000000182e+00 1.741575000000000095e+00 1.221405999999999992e+00 1.623887000000000080e+00 -5.870579999999999687e-01 7.415460000000000385e-01 -5.555759999999999588e-01 -1.891812000000000049e+00 -1.176406999999999980e+00 4.716779999999999862e-01 4.342590000000000061e-01 -6.158280000000000420e-01 1.455324999999999980e+00 -5.046799999999999897e-02 9.022970000000000157e-01 -4.986079999999999957e-01 -3.886022999999999783e+00 -7.944069999999999743e-01 2.270385000000000097e+00 -6.396619999999999528e-01 3.885680000000000245e-01 -2.847024000000000221e+00 3.545725000000000016e+00 2.641515000000000057e+00 -1.862179999999999946e-01 1.528730000000000089e-01 -3.800718999999999959e+00 -6.762580000000000258e-01 -1.280934000000000017e+00 -5.076779999999999626e-01 -6.259740000000000304e-01 2.557699999999999904e-02 -6.019600000000000506e-01 -8.843299999999999494e-01 -3.840669999999999917e-01 2.429834000000000049e+00 -5.626989999999999492e-01 9.892189999999999594e-01 3.141385999999999790e+00 -3.415770000000000195e-01 -2.186990000000000045e-01 6.535389999999999810e-01 -1.628620000000000068e-01 -1.060200999999999949e+00 1.627149999999999985e-01 -1.251309999999999922e-01 1.762186999999999948e+00 -3.481239999999999890e-01 3.012442000000000064e+00 -2.715873000000000204e+00 -3.544160000000000088e-01 -1.575352000000000086e+00 -7.077039999999999997e-01 1.342099999999999960e-01 -1.722968000000000055e+00 -3.587152999999999814e+00 -9.331080000000000485e-01 -1.468283999999999923e+00 1.067736999999999936e+00 -1.303709999999999924e+00 2.172391999999999879e+00 -7.539700000000000568e-02 1.089151999999999898e+00 8.154230000000000089e-01 6.797379999999999534e-01 1.695319000000000020e+00 -2.365727000000000135e+00 2.052199999999999858e-02 -4.239999999999999845e-03 4.162129999999999996e-01 5.407089999999999952e-01 -1.494749000000000105e+00 -2.032824999999999882e+00 8.935199999999999809e-01 1.544024000000000063e+00 -1.325844000000000023e+00 5.228380000000000249e-01 -9.008930000000000549e-01 7.555049999999999821e-01 1.500755000000000061e+00 2.321900000000000006e-02
-1.294953000000000021e+00 -5.555000000000000042e-03 7.777800000000000269e-01 -5.951009999999999911e-01 -3.431480000000000086e-01 8.465960000000000152e-01 -5.068960000000000132e-01 -1.115407000000000037e+00 -3.796249999999999902e-01 -1.008572999999999942e+00 -1.063217999999999996e+00 5.978099999999999525e-01 -1.451969000000000065e+00 1.476261999999999963e+00 1.491570000000000062e+00 3.645920000000000272e-01 -2.246299000000000046e+00 -2.425124999999999975e+00 4.360060000000000047e-01 2.452299999999999966e-02 -1.923014999999999919e+00 -1.937149999999999983e-01 -3.930699999999999750e-01 -1.178776000000000046e+00 1.361577000000000037e+00 -4.230309999999999904e-01 1.907270999999999939e+00 6.368040000000000367e-01 1.267732999999999999e+00 -1.372392000000000056e+00 5.205199999999999827e-01 1.222388000000000030e+00 -2.209048999999999818e+00 3.165600000000000080e-01 -2.308901999999999788e+00 7.523600000000000287e-01 5.690060000000000118e-01 3.141900000000000248e-02 -1.176808000000000076e+00 8.173470000000000457e-01 -2.054330000000000045e-01 -8.210380000000000456e-01 -1.428261999999999921e+00 -3.553080000000000127e-01 -1.213643000000000027e+00 8.482070000000000443e-01 -1.065344999999999986e+00 4.930199999999999860e-02 6.877119999999999900e-01 -1.764893000000000045e+00 -9.304499999999999993e-01 -2.639889999999999737e-01 -1.134983999999999993e+00 -1.314899999999999958e+00 7.598279999999999479e-01 -6.329249999999999599e-01 2.878649999999999820e-01 1.392112999999999934e+00 -2.625129999999999963e-01 1.388573000000000057e+00 6.104389999999999539e-01 1.190175999999999901e+00 9.350870000000000015e-01 5.113910000000000400e-01 3.139336000000000126e+00 -7.937999999999999501e-01 -6.215000000000000524e-01 1.817987999999999937e+00 8.088649999999999451e-01 4.052910000000000124e-01 5.929590000000000138e-01 -1.287803999999999949e+00 -4.854519999999999946e-01 -1.631539999999999935e-01 3.180470000000000130e+00 1.752809999999999924e-01 4.238660000000000205e-01 1.060750000000000082e+00 1.367504999999999971e+00 -8.413580000000000503e-01 1.460180000000000033e+00 1.871499999999999900e-02 -3.684000000000000209e-03 -7.166879999999999917e-01 -1.478728000000000042e+00 -2.565459999999999963e-01 -1.160719999999999946e-01 -1.104691000000000090e+00 1.617439000000000071e+00 -1.694380999999999915e+00 6.502569999999999739e-01 -1.401925000000000088e+00 -7.070229999999999571e-01 3.507910000000000195e-01 7.944600000000000550e-01 3.072176999999999936e+00 -1.760791999999999913e+00 1.345082000000000111e+00 -1.080789999999999945e-01 -6.229999999999999644e-04 2.332339999999999969e-01 8.256639999999999535e-01 -6.046989999999999865e-01 8.098340000000000538e-01 9.263529999999999820e-01
3.009500000000000022e-02 1.332875999999999950e+00 2.215958000000000094e+00 -1.353258999999999990e+00 -2.514775999999999900e+00 2.207765999999999895e+00 4.300340000000000273e-01 -8.361870000000000136e-01 -4.086929999999999730e-01 -2.066603999999999886e+00 -1.174795000000000034e+00 -5.334459999999999757e-01 -5.554029999999999800e-01 -1.094862000000000002e+00 -2.279523000000000188e+00 -1.845493999999999968e+00 1.512399000000000049e+00 1.680555000000000021e+00 -6.238359999999999461e-01 2.744460000000000233e-01 -2.344294000000000100e+00 2.485354000000000063e+00 -1.888166999999999929e+00 1.066386000000000056e+00 1.756132999999999944e+00 -1.208504999999999940e+00 1.827779999999999960e-01 -2.197999999999999954e-02 -6.878159999999999830e-01 -1.518831000000000042e+00 1.575839999999999907e+00 9.189000000000000501e-01 -3.599045999999999967e+00 1.555171999999999999e+00 -2.204019999999999868e+00 2.491782000000000163e+00 1.162252000000000063e+00 5.469230000000000480e-01 7.392799999999999372e-02 3.923679999999999946e-01 -3.072055999999999898e+00 -8.261939999999999840e-01 9.511999999999999622e-03 9.538980000000000237e-01 -1.309668000000000054e+00 -1.050286999999999971e+00 -8.529280000000000195e-01 -2.364997999999999934e+00 -1.288925000000000098e+00 -5.283029999999999671e-01 -3.299946999999999964e+00 -1.623906999999999989e+00 4.881570000000000076e-01 -3.677999999999999846e-03 -2.348860000000000114e-01 8.848179999999999934e-01 -5.524679999999999591e-01 2.329239999999999922e-01 2.197712999999999806e+00 2.494589999999999863e-01 3.989050000000000096e-01 2.304759999999999864e-01 -7.832320000000000393e-01 1.087792000000000092e+00 1.611709999999999976e+00 -4.239689999999999848e-01 -1.697829999999999950e+00 1.095385999999999971e+00 4.717549999999999799e-01 -1.747012999999999927e+00 9.492300000000000182e-01 -1.020388999999999990e+00 2.555149999999999921e-01 4.291989999999999972e-01 2.106952000000000158e+00 -2.709150000000000169e-01 7.544079999999999675e-01 4.662240000000000273e-01 4.702439999999999953e-01 -6.313309999999999755e-01 2.070758999999999794e+00 2.137894999999999879e+00 1.489419999999999911e-01 7.712099999999999511e-02 -7.062519999999999909e-01 -1.178368000000000082e+00 7.930650000000000199e-01 2.273449999999999915e-01 -1.117220000000000019e-01 -8.897850000000000481e-01 -2.504535999999999873e+00 -3.619319999999999760e-01 -8.241800000000000515e-02 2.157998000000000083e+00 -4.101330000000000253e-01 2.599702999999999875e+00 1.702571000000000057e+00 1.079695000000000071e+00 8.582899999999999974e-01 -1.266399999999999991e-02 1.291163999999999978e+00 -7.492300000000000348e-02 -4.641589999999999883e-01 2.055562999999999807e+00 2.703021000000000118e+00
2.000639999999999918e-01 3.592509999999999870e-01 9.643479999999999830e-01 -1.863642000000000021e+00 -1.161256999999999984e+00 2.313389999999999891e-01 -1.353312999999999988e+00 -1.823450999999999933e+00 -1.049914000000000014e+00 -7.026919999999999833e-01 6.961960000000000370e-01 3.411879999999999913e-01 3.476330000000000253e-01 -3.115492999999999846e+00 2.171454000000000217e+00 -3.083962999999999788e+00 2.492827999999999822e+00 2.846899999999999986e-01 -5.610960000000000392e-01 1.256772000000000000e+00 1.026329999999999965e+00 5.226969999999999672e-01 -2.757099999999999829e-02 -2.697805999999999926e+00 -1.824524000000000035e+00 1.923070000000000057e+00 8.720170000000000421e-01 -2.922330000000000205e-01 1.544489999999999919e+00 -1.464491999999999905e+00 -2.668479999999999741e-01 -1.013158000000000003e+00 3.056090000000000195e-01 6.531489999999999796e-01 -6.096810000000000285e-01 -4.801122000000000334e+00 -6.324200000000000654e-02 -8.590290000000000425e-01 -1.767220000000000013e+00 -3.605349999999999944e-01 8.701560000000000406e-01 1.717770000000000130e-01 5.243999999999999773e-01 5.723139999999999894e-01 -1.184158999999999962e+00 -6.873620000000000285e-01 -4.669179999999999997e-01 2.050825999999999816e+00 3.027848000000000095e+00 -1.428069999999999895e-01 -2.085087000000000135e+00 1.961659999999999959e+00 -3.064227999999999952e+00 -1.108444999999999903e+00 1.378681000000000045e+00 -3.806910000000000016e-01 3.663629999999999942e-01 -9.228899999999999604e-02 -8.455200000000000493e-01 6.294130000000000003e-01 4.827359999999999984e-01 6.964350000000000263e-01 1.716895999999999978e+00 1.375353999999999965e+00 1.767427000000000081e+00 -2.636862999999999957e+00 3.249799999999999911e-01 1.613321000000000005e+00 -8.532450000000000312e-01 1.327409999999999979e-01 -1.695079999999999920e+00 2.351185000000000080e+00 1.199619999999999909e+00 -4.412420000000000231e-01 -1.998088000000000086e+00 3.108069999999999999e-01 8.619430000000000147e-01 -6.995820000000000372e-01 3.342419999999999836e-01 -1.258259999999999934e+00 -1.122557999999999945e+00 -1.536140000000000005e-01 -5.693899999999999517e-01 -1.843409999999999993e+00 -2.362720000000000098e-01 1.596751000000000031e+00 2.411621999999999932e+00 -3.332180000000000142e-01 -1.269790999999999892e+00 2.198504999999999932e+00 -2.248489000000000182e+00 -1.805299999999999960e-02 -1.002677999999999958e+00 3.930099999999999927e+00 -1.133915000000000006e+00 4.246620000000000061e+00 -1.247716999999999965e+00 2.418279999999999874e-01 4.474783999999999651e+00 1.322980999999999963e+00 2.269514000000000031e+00 1.346930000000000072e-01 -2.658644999999999925e+00 1.133240000000000025e+00 -6.349900000000000544e-01
-1.135488999999999971e+00 1.237109999999999932e+00 6.647650000000000503e-01 1.888933999999999891e+00 9.476689999999999836e-01 8.224010000000000487e-01 1.822834000000000065e+00 -8.652830000000000243e-01 -2.907678000000000207e+00 2.265909999999999869e+00 -4.678809999999999913e-01 -5.235049999999999981e-01 -1.030199000000000087e+00 1.060924999999999896e+00 1.943788999999999989e+00 -5.304870000000000418e-01 -1.294148000000000076e+00 -1.518378999999999923e+00 1.968776999999999999e+00 2.616200000000000192e-01 -2.452739999999999920e-01 -1.264310999999999963e+00 1.181105000000000071e+00 -4.640329999999999733e-01 -1.407230999999999899e+00 9.145130000000000203e-01 1.407339999999999980e-01 -9.615770000000000151e-01 -2.570349000000000217e+00 -4.621310000000000140e-01 -9.232179999999999831e-01 -2.000141000000000169e+00 -2.018175999999999970e+00 5.342000000000000220e-02 6.778100000000000236e-01 1.455030999999999963e+00 1.985651999999999973e+00 -1.841349999999999931e-01 -9.725300000000000056e-01 4.539469999999999894e-01 -4.273151000000000366e+00 -1.232550000000000034e-01 -8.115510000000000224e-01 -1.002559999999999979e-01 -1.365248000000000017e+00 -3.616659999999999875e-01 -2.710328000000000070e+00 -2.527569999999999872e+00 2.504020000000000135e+00 1.445357999999999921e+00 1.598632000000000053e+00 -6.638290000000000024e-01 2.215989999999999904e-01 9.407980000000000231e-01 9.269600000000000062e-02 -6.633299999999999752e-01 3.623599999999999738e-02 -1.089896999999999894e+00 -3.268130000000000202e-01 2.823939999999999784e-01 -1.692973000000000061e+00 -3.425500000000000211e-01 7.386399999999999633e-01 -1.450250000000000039e+00 1.866206999999999949e+00 -2.233964999999999979e+00 1.108199999999999984e-02 1.470596999999999932e+00 1.923162999999999956e+00 -4.635630000000000028e-01 1.050480000000000025e-01 8.149769999999999515e-01 -2.075915000000000177e+00 6.049579999999999957e-01 -8.268259999999999499e-01 -1.032458000000000098e+00 2.374179999999999902e-01 7.676020000000000065e-01 2.412310999999999872e+00 -2.610971999999999849e+00 2.693440999999999974e+00 8.570389999999999953e-01 2.013482999999999912e+00 -5.452850000000000197e-01 -6.224690000000000500e-01 -3.034529999999999728e-01 5.727870000000000461e-01 1.079904999999999893e+00 2.886730000000000129e-01 2.554936999999999792e+00 -6.013939999999999841e-01 1.104710999999999999e+00 -2.947986999999999913e+00 7.851289999999999658e-01 2.965272000000000130e+00 -2.922569999999999890e-01 -6.429049999999999487e-01 2.116899999999999893e-01 -5.780819999999999848e-01 4.952710000000000168e-01 -1.196839999999999987e-01 9.091190000000000104e-01 8.445300000000000029e-02 1.670299999999999910e-02 1.692736999999999936e+00
2.381064999999999987e+00 1.894981000000000027e+00 -2.563114999999999810e+00 -8.597899999999999987e-02 -1.394492000000000065e+00 -1.040470000000000006e-01 6.488720000000000043e-01 -1.263792999999999944e+00 -9.000010000000000510e-01 -3.125510000000000232e-01 -1.023500999999999994e+00 8.617730000000000112e-01 -4.737609999999999877e-01 2.142999000000000098e+00 -4.879116999999999926e+00 2.717740000000000156e-01 -7.943970000000000198e-01 -2.171727000000000185e+00 4.566129999999999911e-01 -1.064340000000000064e+00 -1.343583999999999889e+00 1.382279999999999898e-01 -1.915030999999999928e+00 -6.473290000000000433e-01 9.795840000000000103e-01 1.340669000000000111e+00 9.233799999999999786e-01 -2.113538000000000139e+00 2.312613999999999947e+00 7.884970000000000034e-01 -2.687561999999999784e+00 1.366916000000000020e+00 -9.613279999999999603e-01 -1.097982000000000014e+00 -1.268583000000000016e+00 -3.188088000000000033e+00 1.600376999999999938e+00 5.346579999999999666e-01 -1.821919999999999928e-01 -5.264990000000000503e-01 -8.916789999999999994e-01 -1.434072000000000013e+00 5.939440000000000275e-01 -5.280470000000000441e-01 6.120060000000000500e-01 -2.065569999999999906e-01 -3.006540999999999908e+00 -7.337930000000000286e-01 -1.209025000000000016e+00 3.262159000000000031e+00 2.139183000000000057e+00 -2.066387000000000196e+00 -2.174946999999999964e+00 6.905289999999999484e-01 1.286148999999999987e+00 -1.605539000000000049e+00 1.592038999999999982e+00 3.197503000000000206e+00 -2.024747000000000074e+00 -1.140095999999999998e+00 -4.577500000000000319e-02 9.060570000000000013e-01 2.034680000000000100e-01 1.075699999999999920e-02 9.213320000000000398e-01 -2.058282999999999863e+00 1.873690000000000078e+00 2.191095999999999933e+00 4.611321000000000225e+00 -1.045309999999999989e-01 -5.708290000000000308e-01 -1.091558000000000028e+00 6.867020000000000346e-01 1.420399999999999961e-02 3.382277000000000200e+00 3.117268999999999846e+00 -1.558364000000000082e+00 7.550040000000000084e-01 -7.269879999999999676e-01 1.485187000000000035e+00 7.929239999999999622e-01 -1.783001000000000058e+00 -1.490693999999999964e+00 1.166836999999999902e+00 -9.041989999999999750e-01 -6.148010000000000419e-01 1.216920000000000002e+00 5.995519999999999738e-01 1.011838000000000015e+00 -2.176425000000000054e+00 1.653880000000000072e-01 -6.885000000000000009e-01 3.654574999999999907e+00 -2.297884999999999955e+00 9.515320000000000444e-01 3.970844000000000040e+00 4.881119999999999903e-01 -3.843320000000000070e-01 -2.723787999999999876e+00 -1.131712000000000051e+00 8.187429999999999986e-01 4.516300000000000175e-02 -7.216489999999999849e-01 3.108172000000000157e+00 8.918019999999999836e-01
-7.717599999999999461e-02 6.383600000000000385e-01 -2.626101999999999936e+00 -3.148356000000000154e+00 4.397670000000000190e-01 -1.118699999999999972e-01 3.613569999999999838e-01 1.209777000000000102e+00 -3.600375999999999799e+00 2.867100000000000204e-01 1.971897000000000011e+00 -1.878932999999999964e+00 9.073959999999999804e-01 2.211542000000000119e+00 -2.521419999999999995e+00 1.182470000000000049e-01 1.450058000000000069e+00 1.978985999999999912e+00 3.922900000000000276e-01 1.518456000000000028e+00 -2.191282999999999870e+00 5.899780000000000024e-01 -2.581561000000000217e+00 1.966274999999999995e+00 1.492330000000000045e-01 1.802310000000000023e-01 -1.415817000000000103e+00 8.185120000000000173e-01 1.646279999999999966e+00 8.615499999999999547e-02 9.514359999999999484e-01 1.723738999999999910e+00 -1.279195000000000082e+00 -1.416663000000000006e+00 -1.028559000000000001e+00 -5.140090000000000492e-01 -8.791400000000000325e-01 6.021389999999999798e-01 -3.963370999999999977e+00 -9.928259999999999863e-01 2.132252999999999954e+00 2.247161999999999882e+00 1.120200000000000085e+00 1.490693999999999964e+00 -2.312536000000000147e+00 1.581804999999999906e+00 -4.588519999999999821e-01 7.727370000000000072e-01 1.412061000000000011e+00 2.056236999999999870e+00 2.399347000000000119e+00 8.778380000000000072e-01 -1.370254000000000083e+00 3.135238000000000191e+00 1.475491000000000108e+00 1.306605999999999934e+00 -1.316900000000000015e-01 1.934190000000000076e-01 7.910399999999999654e-01 -4.504219999999999891e-01 -6.662099999999999966e-02 -1.800545999999999980e+00 4.968319999999999959e-01 3.348570000000000157e-01 -1.677430999999999894e+00 3.181243999999999961e+00 -3.396810000000000107e-01 -1.691705999999999932e+00 9.252690000000000081e-01 1.092659999999999965e+00 -1.059969999999999940e-01 -7.003570000000000073e-01 -1.970649999999999902e-01 -6.750070000000000237e-01 1.875491999999999937e+00 1.163248999999999977e+00 -1.199912000000000090e+00 -8.196740000000000137e-01 -1.257166000000000006e+00 -1.743093000000000004e+00 1.823986000000000107e+00 -4.903109999999999968e-01 -9.678940000000000321e-01 1.126859000000000055e+00 -1.338937000000000044e+00 3.768500000000000322e-02 1.180171000000000081e+00 1.049495999999999984e+00 -6.618799999999999684e-02 -9.452620000000000466e-01 1.560929999999999929e+00 -1.131378999999999913e+00 2.875519999999999743e-01 7.523870000000000280e-01 -9.475080000000000169e-01 2.202240000000000197e+00 -2.596159000000000106e+00 -5.926550000000000429e-01 5.227829999999999977e-01 -2.070867999999999931e+00 -2.254323999999999995e+00 7.344929999999999515e-01 -2.318585000000000118e+00 -1.113895999999999997e+00 -1.480504999999999960e+00