-2.547852023099999883e+02
-2.514263589800000034e+02
-2.550616901900000073e+02
-2.568560956800000099e+02
-2.521557481700000096e+02
-2.535560596100000055e+02
-2.548192436799999996e+02
-2.571826733099999842e+02
-2.551634452099999919e+02
-2.553993539600000133e+02
-2.520425998999999990e+02
-2.553963332200000025e+02
-2.552426218999999890e+02
-2.553178560899999923e+02
-2.510823283899999865e+02
-2.573347583699999745e+02
-2.524327284299999974e+02
-2.557798593699999969e+02
-2.568450663300000087e+02
-2.523361028900000065e+02
-2.577472669800000062e+02
-2.523606351699999948e+02
-2.527543238700000074e+02
-2.550864057699999989e+02
-2.518041790800000115e+02
-2.559317187199999921e+02
-2.517472505800000135e+02
-2.521200620399999934e+02
-2.550125905900000021e+02
-2.494702633100000071e+02
-2.556405621700000097e+02
-2.577383258599999749e+02
-2.550560470099999861e+02
-2.532054854799999930e+02
-2.506755742299999952e+02
-2.519808244799999954e+02
-2.553517554500000131e+02
-2.548572818799999880e+02
-2.572420866400000250e+02
-2.533369538999999975e+02
-2.524939581600000054e+02
-2.547679243299999996e+02
-2.519698678899999891e+02
-2.548536366399999906e+02
-2.573373768399999904e+02
-2.521347427800000105e+02
-2.578716139699999985e+02
-2.580494959399999857e+02
-2.545201328800000056e+02
-2.502046115100000065e+02
