2.673858594345601958e+01 -8.239050577024316979e+00 3.662754813246142049e+00 -8.239050577024316979e+00 2.396382179960328784e+01 7.950403841408921757e+00 3.662754813246142049e+00 7.950403841408921757e+00 4.232525681282130137e+01
-2.930685579578609090e+00 -7.499134074824247875e+00 7.309598558759216047e-01 -7.499134074824247875e+00 -6.341467974706942456e+00 -4.612584161084758883e+00 7.309598558759216047e-01 -4.612584161084758883e+00 -6.115259192887085860e+00
6.887499345637605686e+00 2.523904977185313037e+00 -5.217844290006378172e-01 2.523904977185313037e+00 6.180986941433133985e+00 -2.843571749957956030e+00 -5.217844290006378172e-01 -2.843571749957956030e+00 1.223451649352185866e+00
1.522337284348687536e+00 -3.974856745907080491e-01 -2.093494153826311877e+00 -3.974856745907080491e-01 -3.267372957341778683e-01 5.452618095948441379e+00 -2.093494153826311877e+00 5.452618095948441379e+00 -3.822690507127270543e+00
1.507383042133297835e+01 7.695747038875696333e+00 2.654392307050441047e-01 7.695747038875696333e+00 5.776032457722273250e+00 -7.605687064733126057e+00 2.654392307050441047e-01 -7.605687064733126057e+00 1.485474681556981835e+01
-3.183726519937727595e+00 1.136380484497328869e+00 6.212816770886326889e-01 1.136380484497328869e+00 -1.294429496453478912e+01 -7.373712259170899230e+00 6.212816770886326889e-01 -7.373712259170899230e+00 -1.412457089729182158e+01
-5.233547782724043529e+00 -4.931380453825636501e+00 -2.955634405421766697e+00 -4.931380453825636501e+00 2.633081727830169250e+00 -6.412962109629797958e+00 -2.955634405421766697e+00 -6.412962109629797958e+00 -7.147865655909066973e+00
1.903126796315899871e-01 3.511414873201641473e-01 -1.387474540980674798e+00 3.511414873201641473e-01 -5.543995751667870620e-01 1.000818833267577368e+00 -1.387474540980674798e+00 1.000818833267577368e+00 5.101945839890915657e+00
7.243638461812683893e+00 3.087710487110924884e+00 -1.407004131041056150e+00 3.087710487110924884e+00 2.327084215656070043e+00 -3.177815789647135514e+00 -1.407004131041056150e+00 -3.177815789647135514e+00 -3.690305026609393302e+00
3.943758531367306919e+00 -1.679526087696281977e-01 -1.539718093783827069e+00 -1.679526087696281977e-01 3.501626840878963254e+00 2.023433436650804218e+00 -1.539718093783827069e+00 2.023433436650804218e+00 1.127546391886419563e+01
-1.221462752035689725e+01 -9.662533371885418276e+00 -3.441054386408738619e+00 -9.662533371885418276e+00 -1.011534722847166101e+01 2.390465638449780883e+00 -3.441054386408738619e+00 2.390465638449780883e+00 -1.105022941588991792e+01
-4.750436798787800008e+00 6.412097714869567255e+00 -1.009119602257142756e-01 6.412097714869567255e+00 2.924099640084497853e+00 -1.892365778629933271e+00 -1.009119602257142756e-01 -1.892365778629933271e+00 -5.203736567208498087e+00
-7.757998014472420323e-01 1.184880415656717423e+00 2.027947488681921318e+00 1.184880415656717423e+00 -8.020819474114974090e-01 2.613474712796464150e-01 2.027947488681921318e+00 2.613474712796464150e-01 1.853663017818763636e+00
5.023392411705734695e+00 3.384632611342384134e+00 1.148021845113392336e+00 3.384632611342384134e+00 5.480246239826420229e+00 -4.783991044193199649e+00 1.148021845113392336e+00 -4.783991044193199649e+00 -1.989305490733073256e+01
1.129752346847361011e+01 -5.072154462782677342e+00 6.654561176854737248e+00 -5.072154462782677342e+00 1.821549830750237220e+01 -7.794143704860686306e+00 6.654561176854737248e+00 -7.794143704860686306e+00 2.245081675014932543e+01
4.047555631388615738e-01 2.248158755171452583e+00 7.322372001699544164e-01 2.248158755171452583e+00 2.217793615156037568e+00 -2.259429725079156182e+00 7.322372001699544164e-01 -2.259429725079156182e+00 1.071131020108750942e+00
1.229307310045483170e+01 -8.587545287079068057e-02 -1.403277308833959847e+00 -8.587545287079068057e-02 3.534496314357614022e+00 -1.182427958429246084e+00 -1.403277308833959847e+00 -1.182427958429246084e+00 -1.725586419887488177e+00
4.838597124688101547e-02 -2.750404875933155635e-01 1.746974903501622878e+00 -2.750404875933155635e-01 -6.423036195073623666e-01 -1.130839184563972699e+00 1.746974903501622878e+00 -1.130839184563972699e+00 -3.815022797779306973e+00
1.740643286640244725e+01 -1.568164901482296258e+00 -1.024595301774292311e-01 -1.568164901482296258e+00 1.191328929596045683e+01 -6.706704221782320285e-01 -1.024595301774292311e-01 -6.706704221782320285e-01 2.081140250618621579e+01
1.336567235266024234e+01 -6.685288582482618480e+00 -6.554080328589412474e+00 -6.685288582482618480e+00 -4.666193638830133494e+00 4.416774431178497884e-01 -6.554080328589412474e+00 4.416774431178497884e-01 -2.101853470646423006e+01
5.419751847718395688e+00 -1.962227288534863723e+00 -2.445733270147990301e-01 -1.962227288534863723e+00 4.145548172584060609e+00 1.418473388657461864e-01 -2.445733270147990301e-01 1.418473388657461864e-01 7.347661440995532089e+00
2.429337385828872087e+01 -7.776620464070409522e-01 4.196245481762059804e+00 -7.776620464070409522e-01 4.937765088711747907e+00 1.793522755440504657e+00 4.196245481762059804e+00 1.793522755440504657e+00 1.356600427412258369e+01
-1.242011859639575810e+01 3.700945009476270253e-01 3.328905293954532496e+00 3.700945009476270253e-01 1.083655201925537348e+01 -7.106541231316233720e+00 3.328905293954532496e+00 -7.106541231316233720e+00 -1.189656353157311486e+01
7.966483040877479382e+00 1.093019984705312808e+00 1.936129169916417370e+00 1.093019984705312808e+00 1.433709888631337748e+00 1.711018924997884882e+00 1.936129169916417370e+00 1.711018924997884882e+00 4.035196241571628484e+00
-2.572472573503749871e+01 2.586245294405574047e+00 -1.299446246024281715e+00 2.586245294405574047e+00 -2.392345030968193065e+00 -3.543999270146434455e+00 -1.299446246024281715e+00 -3.543999270146434455e+00 -2.718411438994208140e+01
1.015192685633577518e+01 -6.657591833547299442e-01 9.126975986165067889e-01 -6.657591833547299442e-01 3.623097383886574541e+00 8.831733276842853586e-01 9.126975986165067889e-01 8.831733276842853586e-01 3.662842990284306488e+00
1.414207180435604805e+01 -9.439650999853416158e-01 -1.958193679081191796e+00 -9.439650999853416158e-01 3.080131769779053386e+01 1.260778375319644162e+01 -1.958193679081191796e+00 1.260778375319644162e+01 1.222198358502215676e+01
2.067644434811671061e+01 -8.170280902837340209e-01 -7.236273535253728184e+00 -8.170280902837340209e-01 1.740530541324280378e+01 1.230240351070298832e+00 -7.236273535253728184e+00 1.230240351070298832e+00 6.846667710664071649e+00
-1.017856059660690349e+01 1.796620372854526027e-01 -9.611117689872961112e-01 1.796620372854526027e-01 1.980327511898470005e+00 5.006204709818161680e-01 -9.611117689872961112e-01 5.006204709818161680e-01 -1.816246280732372753e+01
1.091161206435633346e+01 7.423780311778215513e+00 -3.140139341353425095e-01 7.423780311778215513e+00 2.161032363042461490e+00 7.286399080169386977e+00 -3.140139341353425095e-01 7.286399080169386977e+00 -3.600398860811327761e+00
9.330902259885181849e+00 3.602781551704580920e+00 3.755523370986977305e+00 3.602781551704580920e+00 2.386846285077800278e+00 4.522127994970171372e+00 3.755523370986977305e+00 4.522127994970171372e+00 7.163708372923004220e+00
5.385447567300987615e+00 -9.257403484843022001e-01 6.473354660751433620e-01 -9.257403484843022001e-01 3.812488098606637621e+00 6.179732170098344302e-01 6.473354660751433620e-01 6.179732170098344302e-01 6.892036029064251501e+00
1.179953225821331131e+01 -8.584615169467687545e-01 -3.466885432467773920e-01 -8.584615169467687545e-01 2.134919284445981447e+01 -1.004278881830546588e+00 -3.466885432467773920e-01 -1.004278881830546588e+00 1.015217005378894655e+01
4.437649771275211208e+00 -7.353951085012299771e+00 -1.966569294519503464e+00 -7.353951085012299771e+00 9.470295261845002699e+00 -3.456197766421039042e+00 -1.966569294519503464e+00 -3.456197766421039042e+00 -8.749684995950790523e+00
-5.481057154720169855e+00 6.165704041467042984e+00 1.651854652340374763e+00 6.165704041467042984e+00 8.116877026855695121e+00 9.119928505239423444e+00 1.651854652340374763e+00 9.119928505239423444e+00 9.421424421610540278e+00
-4.541354050494318173e+00 -1.507003789762764612e+00 -3.003191854645991810e-01 -1.507003789762764612e+00 5.102719964640555439e+00 2.911199510188524631e+00 -3.003191854645991810e-01 2.911199510188524631e+00 -4.299119731426817026e+00
6.789315609354797942e+00 6.802947087977043061e+00 -2.551904002888662149e+00 6.802947087977043061e+00 1.639136597533934703e+00 1.272685970246241860e+00 -2.551904002888662149e+00 1.272685970246241860e+00 9.929798898242506056e+00
5.496984623900627476e+00 -1.803400099030239456e+00 -4.426205456866531662e+00 -1.803400099030239456e+00 2.447647579446615040e+01 4.543218411887998798e+00 -4.426205456866531662e+00 4.543218411887998798e+00 1.597450626697475684e+01
-2.462473427848260066e+00 -2.344313626133669171e-02 -1.273979226853287350e-01 -2.344313626133669171e-02 4.899796957141712817e+00 4.140713346891096713e-01 -1.273979226853287350e-01 4.140713346891096713e-01 4.374814159338765940e+00
2.287285436748363665e+01 -4.192707067577645219e+00 -6.054483360451486718e+00 -4.192707067577645219e+00 2.068038294356783524e+01 4.388806417159939244e+00 -6.054483360451486718e+00 4.388806417159939244e+00 2.460444714520497200e+01
2.954357721570963236e+01 4.792527203470124064e+00 3.610823201691640172e+00 4.792527203470124064e+00 1.952595826981777449e+01 -3.082891645036168971e+00 3.610823201691640172e+00 -3.082891645036168971e+00 2.670693272505435445e+01
5.060010704381780577e+00 8.187113370757295172e-01 3.313136241091196421e+00 8.187113370757295172e-01 2.479401296732786975e+00 -1.966175064441703535e+00 3.313136241091196421e+00 -1.966175064441703535e+00 1.400312761274509488e-01
1.282940552176470739e+01 -4.081046675320978423e+00 -1.707163026831600039e+00 -4.081046675320978423e+00 9.478614828068856468e+00 3.988366124093229992e+00 -1.707163026831600039e+00 3.988366124093229992e+00 5.548106290154836140e-01
2.217325952089345620e+01 5.561377508392190805e+00 -5.186444167094586555e-02 5.561377508392190805e+00 1.566047909396423243e+01 2.838168440536139592e+00 -5.186444167094586555e-02 2.838168440536139592e+00 1.941540815755083926e+01
6.929390944059826696e-01 -6.543931159684798216e-01 3.706293825016159643e-02 -6.543931159684798216e-01 -2.294563697784330447e+00 -1.412575089923002070e+00 3.706293825016159643e-02 -1.412575089923002070e+00 1.544008165439307190e+00
2.491112494657984300e+01 2.029833818948393542e+00 -1.553876133531582604e-01 2.029833818948393542e+00 2.250229669997217741e+01 8.570183726235621080e+00 -1.553876133531582604e-01 8.570183726235621080e+00 3.203216925719485886e+01
-7.246806308224656989e-02 -9.183903976110640022e-01 7.096946949370206426e-01 -9.183903976110640022e-01 3.479915166046078756e+00 4.522122463167159157e-01 7.096946949370206426e-01 4.522122463167159157e-01 1.458596145324229099e+00
7.501564964483728622e-03 1.774145569396090860e-01 3.662131648123370664e-01 1.774145569396090860e-01 1.447166762505109616e-01 -1.748176740784900929e+00 3.662131648123370664e-01 -1.748176740784900929e+00 1.330369011865998097e+00
9.773214241549693426e+00 -2.476034292800812331e+00 2.584107516699484908e+00 -2.476034292800812331e+00 1.982984156774215911e+00 5.465252586495343401e+00 2.584107516699484908e+00 5.465252586495343401e+00 9.826806835068174095e+00
-1.718545918623922475e+01 4.791919220734099927e-01 -1.159329721906262461e-01 4.791919220734099927e-01 -1.691169841757066550e+01 -1.238422155770560096e+01 -1.159329721906262461e-01 -1.238422155770560096e+01 -1.333317180977848793e+01
