6.165230872999999612e+00 0.000000000000000000e+00 0.000000000000000000e+00 -1.560482963999999972e+00 8.036870635999999735e+00 0.000000000000000000e+00 -1.517500945999999962e+00 2.674951340999999871e+00 7.591596848000000008e+00
6.103742094000000229e+00 0.000000000000000000e+00 0.000000000000000000e+00 -1.878547281999999985e+00 8.219353088000000085e+00 0.000000000000000000e+00 -1.468946780000000008e+00 2.851811732999999904e+00 7.541710186000000427e+00
6.319211675000000028e+00 0.000000000000000000e+00 0.000000000000000000e+00 -1.467916049999999917e+00 7.936640032999999761e+00 0.000000000000000000e+00 -1.522256236999999901e+00 2.558628716999999941e+00 7.612335621999999802e+00
6.337529183000000010e+00 0.000000000000000000e+00 0.000000000000000000e+00 -1.702380634999999920e+00 8.406946666999999707e+00 0.000000000000000000e+00 -1.537868589999999980e+00 2.806614885000000115e+00 7.739936520999999736e+00
6.179520471000000015e+00 0.000000000000000000e+00 0.000000000000000000e+00 -1.491533728999999919e+00 7.970530993999999758e+00 0.000000000000000000e+00 -1.537980444000000002e+00 2.572239425999999884e+00 7.625517815000000255e+00
6.332955819999999569e+00 0.000000000000000000e+00 0.000000000000000000e+00 -1.650136894999999937e+00 7.917060500999999917e+00 0.000000000000000000e+00 -1.887013972999999956e+00 2.582413868000000168e+00 7.761414305999999819e+00
6.270508385000000295e+00 0.000000000000000000e+00 0.000000000000000000e+00 4.496791586999999701e+00 8.110577799999999726e+00 0.000000000000000000e+00 4.635965900000000417e+00 2.767733632000000110e+00 7.494838552000000043e+00
6.181830716000000336e+00 0.000000000000000000e+00 0.000000000000000000e+00 -1.604305418999999899e+00 8.115053457000000137e+00 0.000000000000000000e+00 -1.697890582999999953e+00 2.655343719999999852e+00 7.765894282999999731e+00
6.111077769000000437e+00 0.000000000000000000e+00 0.000000000000000000e+00 -1.565452567999999989e+00 8.019585438000000011e+00 0.000000000000000000e+00 -1.542592387000000009e+00 2.681111458999999808e+00 7.588368336000000269e+00
6.206915002999999764e+00 0.000000000000000000e+00 0.000000000000000000e+00 -1.502249117999999939e+00 8.034458964000000591e+00 0.000000000000000000e+00 -1.462435775000000104e+00 2.637651093000000113e+00 7.464933045999999628e+00
6.253686105999999967e+00 0.000000000000000000e+00 0.000000000000000000e+00 -1.564055007000000108e+00 8.159563059999999979e+00 0.000000000000000000e+00 -1.577496792999999897e+00 2.714071414999999821e+00 7.820947280999999585e+00
6.257868754999999616e+00 0.000000000000000000e+00 0.000000000000000000e+00 -1.440859174999999937e+00 8.154100057000000845e+00 0.000000000000000000e+00 -1.578177107999999995e+00 2.597781257999999927e+00 7.627192603000000126e+00
6.308133704000000286e+00 0.000000000000000000e+00 0.000000000000000000e+00 -1.669025535000000060e+00 8.199247779000000236e+00 0.000000000000000000e+00 -1.544422084999999889e+00 2.741593717000000208e+00 7.683647681000000063e+00
6.296658019999999745e+00 0.000000000000000000e+00 0.000000000000000000e+00 -1.784360841000000031e+00 8.265060324000000236e+00 0.000000000000000000e+00 -1.539980609999999972e+00 2.788262961000000040e+00 7.658784382000000335e+00
6.263910229999999579e+00 0.000000000000000000e+00 0.000000000000000000e+00 -1.541288621999999942e+00 8.063357441000000847e+00 0.000000000000000000e+00 -1.556112579000000107e+00 2.666181603000000067e+00 7.557410499000000392e+00
6.310688444000000175e+00 0.000000000000000000e+00 0.000000000000000000e+00 -1.770203758999999932e+00 7.994613182000000151e+00 0.000000000000000000e+00 -1.611513501999999987e+00 2.757490226999999905e+00 7.795472127000000029e+00
6.292316695000000237e+00 0.000000000000000000e+00 0.000000000000000000e+00 -1.766396611000000005e+00 8.152491417000000240e+00 0.000000000000000000e+00 -1.601990027000000039e+00 2.787989231000000068e+00 7.537802692999999721e+00
6.268191597999999587e+00 0.000000000000000000e+00 0.000000000000000000e+00 4.492758849000000332e+00 8.087215246999999607e+00 0.000000000000000000e+00 4.618323343000000136e+00 2.771468398000000111e+00 7.422054548000000196e+00
6.141549958999999781e+00 0.000000000000000000e+00 0.000000000000000000e+00 4.799401718999999567e+00 8.192539411000000271e+00 0.000000000000000000e+00 4.708896696000000048e+00 2.581358762999999890e+00 7.418106840000000091e+00
6.345866003000000255e+00 0.000000000000000000e+00 0.000000000000000000e+00 -1.842043536999999898e+00 8.142319429000000497e+00 0.000000000000000000e+00 -1.807650666000000017e+00 2.832817935000000009e+00 7.734338364000000077e+00
6.268191597999999587e+00 0.000000000000000000e+00 0.000000000000000000e+00 4.492758849000000332e+00 8.087215246999999607e+00 0.000000000000000000e+00 4.618323343000000136e+00 2.771468398000000111e+00 7.422054548000000196e+00
6.189525853000000133e+00 0.000000000000000000e+00 0.000000000000000000e+00 -1.823729240999999890e+00 8.124453623999999152e+00 0.000000000000000000e+00 -1.392277060000000066e+00 2.724639171999999832e+00 7.557613423000000274e+00
6.268191597999999587e+00 0.000000000000000000e+00 0.000000000000000000e+00 4.492758849000000332e+00 8.087215246999999607e+00 0.000000000000000000e+00 4.618323343000000136e+00 2.771468398000000111e+00 7.422054548000000196e+00
6.268191597999999587e+00 0.000000000000000000e+00 0.000000000000000000e+00 4.492758849000000332e+00 8.087215246999999607e+00 0.000000000000000000e+00 4.618323343000000136e+00 2.771468398000000111e+00 7.422054548000000196e+00
6.226614009000000394e+00 0.000000000000000000e+00 0.000000000000000000e+00 -1.534889251000000066e+00 8.333191404000000801e+00 0.000000000000000000e+00 -1.379396124999999973e+00 2.753320518999999855e+00 7.882530805000000029e+00
6.127160663999999812e+00 0.000000000000000000e+00 0.000000000000000000e+00 -1.631571864000000094e+00 8.244446903000000049e+00 0.000000000000000000e+00 -1.428865086000000062e+00 2.844645843999999979e+00 7.660880350000000227e+00
6.230390824999999744e+00 0.000000000000000000e+00 0.000000000000000000e+00 4.861138461000000355e+00 7.964069454999999742e+00 0.000000000000000000e+00 4.707441089999999662e+00 2.502336650999999801e+00 7.669339662999999696e+00
6.280242957999999653e+00 0.000000000000000000e+00 0.000000000000000000e+00 -1.839390878999999979e+00 8.030475178999999741e+00 0.000000000000000000e+00 -1.841243042000000107e+00 2.760081029999999824e+00 7.579041325999999579e+00
6.087828831000000385e+00 0.000000000000000000e+00 0.000000000000000000e+00 -1.611184029999999989e+00 8.092116239999999294e+00 0.000000000000000000e+00 -1.494262286999999967e+00 2.707097060000000166e+00 7.501784659000000133e+00
6.294662554000000299e+00 0.000000000000000000e+00 0.000000000000000000e+00 -1.745954840000000008e+00 8.229240605999999403e+00 0.000000000000000000e+00 -1.533001009999999997e+00 2.820286590999999898e+00 7.636941891000000204e+00
6.223185599999999873e+00 0.000000000000000000e+00 0.000000000000000000e+00 -1.446282583999999982e+00 8.068515704999999372e+00 0.000000000000000000e+00 -1.450096006000000104e+00 2.708514617000000069e+00 7.403466564000000361e+00
6.249737338000000086e+00 0.000000000000000000e+00 0.000000000000000000e+00 -1.697034732000000101e+00 8.013546711000000045e+00 0.000000000000000000e+00 -1.566222956000000055e+00 2.806593030999999794e+00 7.732055758999999640e+00
6.282687661999999840e+00 0.000000000000000000e+00 0.000000000000000000e+00 -1.461300497999999948e+00 8.118158059000000648e+00 0.000000000000000000e+00 -1.428422931000000062e+00 2.704684655999999965e+00 7.595823521999999883e+00
6.092476298000000234e+00 0.000000000000000000e+00 0.000000000000000000e+00 -1.759621278000000011e+00 7.995592999000000312e+00 0.000000000000000000e+00 -1.445027290000000075e+00 2.756912632999999779e+00 7.493697566999999893e+00
5.976818220000000181e+00 0.000000000000000000e+00 0.000000000000000000e+00 4.387993873000000100e+00 7.778030593000000437e+00 0.000000000000000000e+00 4.591228802999999914e+00 2.419306762000000166e+00 7.437586939000000008e+00
6.230077600000000437e+00 0.000000000000000000e+00 0.000000000000000000e+00 -1.889073529000000029e+00 8.089255910000000327e+00 0.000000000000000000e+00 -1.601524750999999913e+00 2.891084177000000199e+00 7.525586440999999738e+00
6.304193942000000384e+00 0.000000000000000000e+00 0.000000000000000000e+00 -1.586169720000000005e+00 8.104195818999999190e+00 0.000000000000000000e+00 -1.588594139000000016e+00 2.696965399000000208e+00 7.521007135999999704e+00
6.156870666999999742e+00 0.000000000000000000e+00 0.000000000000000000e+00 -1.659014280000000063e+00 8.025374033000000296e+00 0.000000000000000000e+00 -1.430462515999999962e+00 2.514404780000000006e+00 7.603305297000000351e+00
6.295260956999999991e+00 0.000000000000000000e+00 0.000000000000000000e+00 -1.633245585999999916e+00 8.007403748999999848e+00 0.000000000000000000e+00 -1.499524464999999918e+00 2.831581056000000096e+00 7.802599391000000217e+00
6.354232397999999726e+00 0.000000000000000000e+00 0.000000000000000000e+00 -1.623539639999999951e+00 8.073346346999999312e+00 0.000000000000000000e+00 -1.642917224999999926e+00 2.606448219999999871e+00 7.552624058000000140e+00
6.287272336000000017e+00 0.000000000000000000e+00 0.000000000000000000e+00 -1.737672566000000085e+00 8.211945910000000737e+00 0.000000000000000000e+00 -1.550370250000000061e+00 2.802806254000000052e+00 7.646980023000000237e+00
6.266817567000000366e+00 0.000000000000000000e+00 0.000000000000000000e+00 -1.549218203999999988e+00 8.306346605999999966e+00 0.000000000000000000e+00 -1.429135588999999928e+00 2.787803505999999931e+00 7.843613192000000289e+00
6.133057777000000321e+00 0.000000000000000000e+00 0.000000000000000000e+00 -1.538062395000000082e+00 8.002046464999999387e+00 0.000000000000000000e+00 -1.503479867000000025e+00 2.621842389999999856e+00 7.520747120000000230e+00
6.131389995000000148e+00 0.000000000000000000e+00 0.000000000000000000e+00 -1.588700822000000068e+00 8.046161721000000711e+00 0.000000000000000000e+00 -1.651464282999999922e+00 2.679232654999999852e+00 7.551102447999999967e+00
6.298010091000000088e+00 0.000000000000000000e+00 0.000000000000000000e+00 -1.363668608000000004e+00 8.029555894999999666e+00 0.000000000000000000e+00 -1.213775739999999992e+00 2.776606750000000012e+00 7.621918661999999678e+00
6.111989266000000143e+00 0.000000000000000000e+00 0.000000000000000000e+00 4.796004594000000232e+00 8.182183909999999116e+00 0.000000000000000000e+00 4.688539904999999841e+00 2.565994524000000165e+00 7.363317330000000105e+00
6.268191597999999587e+00 0.000000000000000000e+00 0.000000000000000000e+00 4.492758849000000332e+00 8.087215246999999607e+00 0.000000000000000000e+00 4.618323343000000136e+00 2.771468398000000111e+00 7.422054548000000196e+00
6.345487314999999739e+00 0.000000000000000000e+00 0.000000000000000000e+00 -1.512472322999999896e+00 8.201237130000000874e+00 0.000000000000000000e+00 -1.565566573999999989e+00 2.701909709999999798e+00 7.708069079999999573e+00
6.297753203000000077e+00 0.000000000000000000e+00 0.000000000000000000e+00 -1.639741255999999980e+00 8.308162998000000243e+00 0.000000000000000000e+00 -1.386019872000000097e+00 2.833517939000000041e+00 7.835113460999999724e+00
6.271633966999999643e+00 0.000000000000000000e+00 0.000000000000000000e+00 -1.351598225999999903e+00 8.139433444999999878e+00 0.000000000000000000e+00 -1.552541672999999900e+00 2.511463304999999924e+00 7.740457258000000174e+00
