1.545590000000000019e+00 8.412899999999999823e-01 6.614299999999999624e-01 2.982299999999999951e+00 1.807549999999999990e+00 3.291830000000000034e+00 4.388569999999999638e+00 2.653340000000000032e+00 5.833549999999999791e+00 3.111439999999999984e+00 3.513790000000000191e+00 8.641199999999999992e-01 4.468379999999999797e+00 4.477780000000000094e+00 3.327869999999999884e+00 -5.328999999999999709e-02 5.286369999999999791e+00 5.862779999999999880e+00 4.512929999999999886e+00 6.259649999999999714e+00 6.859399999999999942e-01 1.221999999999999996e-02 7.239609999999999879e+00 3.293330000000000091e+00 1.479139999999999899e+00 7.923670000000000435e+00 5.824670000000000236e+00 4.445789999999999687e+00 9.805199999999999472e-01 6.961500000000000465e-01 -1.178600000000000064e-01 1.695540000000000047e+00 3.322000000000000064e+00 1.467240000000000100e+00 2.627139999999999809e+00 5.786640000000000228e+00 1.742000000000000146e-02 3.664960000000000218e+00 7.872599999999999598e-01 1.464469999999999938e+00 4.620949999999999669e+00 3.240240000000000009e+00 3.028230000000000199e+00 5.290009999999999657e+00 5.845340000000000202e+00 1.511400000000000077e+00 6.255239999999999689e+00 7.902200000000000335e-01 3.066829999999999945e+00 7.210040000000000227e+00 3.281530000000000058e+00 -1.643289999999999917e+00 8.096830000000000638e+00 5.725999999999999979e+00 5.989690000000000403e+00 1.074399999999999938e-01 1.572300000000000086e-01 1.529190000000000049e+00 1.054899999999999949e+00 2.470619999999999816e+00 1.489640000000000075e+00 9.664509999999999934e+00 5.166290000000000049e+00 1.515009999999999968e+00 2.646780000000000133e+00 1.396499999999999964e-01 2.955659999999999954e+00 3.662650000000000183e+00 2.685229999999999784e+00 4.487689999999999735e+00 4.472640000000000171e+00 5.208330000000000126e+00 3.057960000000000012e+00 5.208879999999999733e+00 8.118000000000000216e-02 -1.424549999999999983e+00 6.021690000000000431e+00 2.379259999999999931e+00 1.247199999999999975e-01 6.982020000000000337e+00 5.152840000000000309e+00 1.418309999999999960e+00 8.028269999999999129e+00 3.043999999999999831e-02 4.399110000000000298e+00 1.030410000000000048e+00 2.473879999999999857e+00 -1.550600000000000034e-01 1.991579999999999906e+00 5.356099999999999639e+00 4.671920000000000073e+00 2.761109999999999953e+00 1.919899999999999940e-01 -1.212600000000000067e-01 3.567110000000000003e+00 2.676540000000000141e+00 1.496269999999999989e+00 4.479989999999999917e+00 5.090349999999999930e+00 -4.420999999999999930e-02 5.326279999999999681e+00 1.256099999999999994e-01 1.623620000000000063e+00 6.342859999999999943e+00 2.542060000000000208e+00 2.910880000000000134e+00 7.012489999999999668e+00 5.210020000000000095e+00 -1.580810000000000048e+00 7.984869999999999912e+00 3.831420000000000048e+00
1.561979999999999924e+00 9.079000000000000403e-01 5.096699999999999564e-01 2.837499999999999911e+00 1.874230000000000063e+00 3.216889999999999805e+00 4.406100000000000350e+00 2.996080000000000076e+00 5.667729999999999713e+00 2.844059999999999810e+00 3.526089999999999947e+00 7.215200000000000502e-01 4.388169999999999682e+00 4.494880000000000209e+00 3.176779999999999937e+00 -1.996999999999999886e-01 5.497600000000000264e+00 5.681300000000000239e+00 4.524300000000000210e+00 6.503639999999999866e+00 5.741399999999999837e-01 -3.470699999999999896e-01 7.430629999999999846e+00 3.219510000000000094e+00 1.395159999999999956e+00 8.481749999999999901e+00 5.582259999999999778e+00 4.587769999999999904e+00 1.056130000000000013e+00 7.593999999999999639e-01 -1.775599999999999956e-01 1.766170000000000018e+00 3.260759999999999881e+00 1.457200000000000051e+00 2.893979999999999997e+00 5.700919999999999987e+00 -1.325999999999999956e-01 3.664149999999999796e+00 6.418000000000000371e-01 1.200110000000000010e+00 4.691309999999999647e+00 3.108039999999999914e+00 2.771129999999999871e+00 5.432479999999999976e+00 5.884649999999999714e+00 1.350970000000000004e+00 6.339380000000000237e+00 6.797400000000000109e-01 2.842060000000000031e+00 7.332830000000000403e+00 3.259749999999999925e+00 -1.714450000000000029e+00 8.236499999999999488e+00 5.683600000000000207e+00 5.966940000000000133e+00 7.813000000000000500e-02 4.002000000000000002e-02 1.507660000000000000e+00 9.790100000000000469e-01 2.274140000000000050e+00 3.063899999999999846e+00 1.935219999999999940e+00 5.073290000000000077e+00 -1.185599999999999987e-01 5.495429999999999815e+00 7.498020000000000351e+00 2.705000000000000071e+00 3.713109999999999911e+00 2.683059999999999778e+00 4.322160000000000224e+00 4.840499999999999581e+00 5.058200000000000252e+00 2.843850000000000211e+00 5.243900000000000006e+00 2.199699999999999989e-01 -1.522180000000000089e+00 6.187879999999999825e+00 2.399789999999999868e+00 1.145999999999999970e-02 7.350959999999999717e+00 5.371599999999999930e+00 3.191240000000000077e+00 9.528000000000000358e-02 1.889200000000000046e-01 2.418320000000000025e+00 9.123300000000000409e+00 2.516570000000000196e+00 -1.598499999999999921e-01 2.099279999999999813e+00 5.550690000000000346e+00 4.409699999999999953e+00 2.848059999999999814e+00 1.349100000000000021e-01 -2.073099999999999943e-01 3.668419999999999792e+00 2.703230000000000022e+00 1.360119999999999996e+00 4.686939999999999884e+00 5.102050000000000196e+00 -2.874999999999999778e-01 5.379069999999999574e+00 6.299000000000000432e-02 1.251740000000000075e+00 6.574709999999999610e+00 2.774840000000000195e+00 2.502889999999999837e+00 7.304570000000000007e+00 5.328839999999999577e+00 -1.834370000000000056e+00 8.201950000000000074e+00 3.929619999999999891e+00
1.602360000000000007e+00 9.074200000000000044e-01 8.503100000000000103e-01 3.038110000000000088e+00 1.750729999999999897e+00 3.350979999999999848e+00 4.740890000000000271e+00 2.493549999999999933e+00 5.676910000000000345e+00 3.109109999999999818e+00 3.519820000000000171e+00 6.904099999999999682e-01 4.762019999999999698e+00 4.238620000000000054e+00 3.230080000000000062e+00 -2.633699999999999930e-01 5.111019999999999897e+00 5.820229999999999571e+00 5.048440000000000261e+00 6.027289999999999814e+00 7.183000000000000496e-01 -1.717500000000000138e-01 7.013160000000000061e+00 3.328889999999999905e+00 1.621909999999999963e+00 7.828020000000000422e+00 5.812979999999999592e+00 4.885209999999999830e+00 1.057830000000000048e+00 8.690400000000000347e-01 -2.750699999999999812e-01 1.806599999999999984e+00 3.233699999999999797e+00 1.620560000000000000e+00 2.718939999999999912e+00 5.807450000000000223e+00 2.630000000000000046e-02 3.530380000000000074e+00 6.379799999999999915e-01 1.516899999999999915e+00 4.301840000000000330e+00 3.233099999999999863e+00 3.075540000000000163e+00 5.107590000000000074e+00 5.871879999999999988e+00 1.766929999999999890e+00 6.271729999999999805e+00 8.611900000000000110e-01 3.197509999999999852e+00 6.969260000000000232e+00 3.375030000000000197e+00 -1.595639999999999947e+00 7.866290000000000227e+00 5.627550000000000274e+00 -1.403780000000000028e+00 7.778220000000000134e+00 2.563099999999999823e-01 1.686900000000000066e+00 9.777900000000000480e-01 2.645129999999999981e+00 1.568270000000000053e+00 9.699930000000000163e+00 5.295939999999999870e+00 1.566670000000000007e+00 2.535960000000000214e+00 8.011999999999999678e-02 3.023940000000000072e+00 3.524109999999999854e+00 2.499330000000000052e+00 4.530529999999999724e+00 4.360540000000000305e+00 5.136269999999999669e+00 3.377819999999999823e+00 5.276069999999999816e+00 2.117000000000000132e-02 4.863760000000000083e+00 5.898100000000000342e+00 2.514359999999999928e+00 6.700000000000000226e-03 6.909880000000000244e+00 5.313589999999999591e+00 3.279389999999999805e+00 1.656999999999999862e-01 1.241499999999999965e-01 4.428740000000000343e+00 1.015679999999999916e+00 2.650119999999999809e+00 -3.176999999999999963e-02 1.844610000000000083e+00 5.249259999999999593e+00 4.805609999999999715e+00 2.799479999999999968e+00 9.617000000000000548e-02 -1.413500000000000034e-01 3.456030000000000157e+00 2.445770000000000000e+00 1.396840000000000082e+00 4.347529999999999895e+00 5.126949999999999896e+00 -1.011719999999999953e+00 8.005750000000000810e+00 7.562369999999999592e+00 1.679059999999999997e+00 6.070759999999999934e+00 2.662799999999999834e+00 3.105579999999999785e+00 6.774160000000000181e+00 5.385790000000000077e+00 -1.636300000000000088e+00 7.963639999999999830e+00 3.820600000000000218e+00
1.468979999999999952e+00 9.652600000000000069e-01 7.832200000000000273e-01 3.054139999999999855e+00 1.942989999999999995e+00 3.424869999999999859e+00 4.680880000000000152e+00 2.767059999999999853e+00 5.937450000000000117e+00 3.014670000000000183e+00 3.917959999999999887e+00 6.553299999999999681e-01 4.668859999999999566e+00 4.642240000000000144e+00 3.351770000000000138e+00 3.048000000000000015e-02 5.567800000000000082e+00 5.973230000000000040e+00 4.477500000000000036e+00 6.462290000000000312e+00 6.427899999999999725e-01 -1.587099999999999900e-01 7.557879999999999932e+00 3.415659999999999918e+00 1.324119999999999964e+00 8.355880000000000862e+00 5.803539999999999921e+00 4.665519999999999889e+00 9.381599999999999939e-01 7.109499999999999709e-01 -7.845000000000000584e-02 1.801460000000000061e+00 3.323420000000000041e+00 1.585820000000000007e+00 2.788670000000000204e+00 5.868199999999999861e+00 -2.289599999999999969e-01 3.641789999999999861e+00 6.729199999999999626e-01 1.485009999999999941e+00 4.697869999999999990e+00 3.303450000000000220e+00 3.147209999999999841e+00 5.543619999999999770e+00 5.996439999999999770e+00 1.502939999999999943e+00 6.486919999999999575e+00 6.955200000000000271e-01 3.064290000000000180e+00 7.580140000000000100e+00 3.336230000000000029e+00 -1.726350000000000051e+00 8.485630000000000450e+00 5.760849999999999582e+00 4.568699999999999761e+00 8.369189999999999685e+00 1.466800000000000048e-01 1.711989999999999901e+00 1.076899999999999968e+00 2.521780000000000133e+00 1.492299999999999960e+00 1.017794999999999916e+01 5.307859999999999800e+00 1.497160000000000046e+00 2.812609999999999832e+00 1.103699999999999959e-01 3.069329999999999892e+00 3.825149999999999828e+00 2.646319999999999784e+00 -1.583110000000000017e+00 4.717380000000000351e+00 5.267999999999999794e+00 1.738120000000000109e+00 8.548170000000000712e+00 7.600069999999999659e+00 4.482969999999999899e+00 6.318760000000000154e+00 2.521840000000000082e+00 -1.766600000000000115e-01 7.232730000000000103e+00 5.478970000000000340e+00 1.454739999999999922e+00 8.385659999999999670e+00 8.143000000000000238e-02 4.536430000000000184e+00 1.102829999999999977e+00 2.629210000000000047e+00 -9.285999999999999810e-02 2.090720000000000134e+00 5.298420000000000130e+00 4.607779999999999987e+00 2.715180000000000149e+00 1.128399999999999959e-01 -4.207000000000000323e-02 3.825359999999999872e+00 2.579880000000000173e+00 1.638179999999999970e+00 4.644129999999999647e+00 5.278769999999999740e+00 -1.551500000000000101e-01 5.493059999999999832e+00 3.119000000000000106e-01 1.430260000000000087e+00 6.497709999999999653e+00 2.741690000000000182e+00 2.891020000000000145e+00 7.441080000000000361e+00 5.473209999999999908e+00 -1.682120000000000060e+00 8.463290000000000646e+00 3.923700000000000188e+00
1.418520000000000003e+00 8.926699999999999635e-01 6.702500000000000124e-01 3.054910000000000014e+00 1.713019999999999987e+00 3.334700000000000220e+00 4.550169999999999604e+00 2.439909999999999801e+00 5.925830000000000375e+00 3.101020000000000110e+00 3.472030000000000172e+00 7.526599999999999957e-01 4.727050000000000196e+00 4.425489999999999924e+00 3.364679999999999893e+00 -1.039700000000000069e-01 5.272100000000000009e+00 5.908019999999999605e+00 4.607479999999999798e+00 6.239150000000000418e+00 6.087900000000000533e-01 -1.324400000000000022e-01 7.082019999999999982e+00 3.282849999999999824e+00 1.560279999999999889e+00 7.891549999999999621e+00 5.874480000000000146e+00 4.557640000000000136e+00 8.783300000000000551e-01 6.684099999999999486e-01 -1.916999999999999954e-02 1.776440000000000019e+00 3.311949999999999950e+00 1.459840000000000027e+00 2.522980000000000000e+00 5.841330000000000133e+00 -9.124000000000000166e-02 3.594390000000000196e+00 7.301199999999999912e-01 1.532180000000000097e+00 4.336759999999999948e+00 3.332629999999999981e+00 3.098939999999999806e+00 5.129129999999999967e+00 5.864770000000000039e+00 1.582529999999999992e+00 6.180699999999999861e+00 9.435499999999999998e-01 3.055860000000000021e+00 6.990359999999999907e+00 3.433549999999999880e+00 -1.488390000000000102e+00 7.887240000000000251e+00 5.588059999999999583e+00 4.547570000000000334e+00 7.960090000000000110e+00 2.549899999999999944e-01 1.662930000000000019e+00 9.007800000000000251e-01 2.461889999999999912e+00 1.504709999999999992e+00 9.705650000000000333e+00 5.174310000000000187e+00 1.460360000000000102e+00 2.705589999999999939e+00 1.473399999999999987e-01 3.089630000000000098e+00 3.623470000000000191e+00 2.652610000000000134e+00 4.614200000000000301e+00 4.285199999999999676e+00 5.292349999999999888e+00 3.170100000000000140e+00 5.314420000000000144e+00 4.764000000000000179e-02 4.573669999999999902e+00 6.042930000000000135e+00 2.452119999999999855e+00 1.494699999999999918e-01 6.926499999999999879e+00 5.252069999999999794e+00 1.459070000000000089e+00 7.992009999999999614e+00 1.293900000000000050e-01 4.381000000000000227e+00 8.913600000000000412e-01 2.487600000000000033e+00 -1.183600000000000069e-01 1.962660000000000071e+00 5.146499999999999631e+00 4.620809999999999640e+00 2.706020000000000092e+00 7.333000000000000629e-02 -1.982000000000000081e-02 3.557529999999999859e+00 2.512490000000000112e+00 1.441640000000000033e+00 4.346630000000000216e+00 5.262349999999999639e+00 -1.419510000000000050e+00 7.962519999999999598e+00 7.554170000000000051e+00 1.465060000000000029e+00 6.122980000000000089e+00 2.784920000000000062e+00 2.895830000000000126e+00 6.906109999999999971e+00 5.273410000000000153e+00 -1.550550000000000095e+00 7.943319999999999936e+00 3.852899999999999991e+00
1.368600000000000039e+00 9.379699999999999704e-01 5.215100000000000291e-01 2.972350000000000048e+00 1.789009999999999989e+00 3.466419999999999835e+00 4.267570000000000086e+00 2.661999999999999922e+00 6.127239999999999576e+00 3.021710000000000118e+00 3.527839999999999865e+00 8.557399999999999451e-01 4.640109999999999957e+00 4.391740000000000421e+00 3.351780000000000204e+00 -2.184999999999999998e-01 5.086960000000000370e+00 5.944840000000000124e+00 4.566189999999999749e+00 6.170180000000000220e+00 7.376000000000000334e-01 -6.239999999999999714e-02 6.963899999999999757e+00 3.271329999999999849e+00 1.241810000000000080e+00 7.931869999999999976e+00 6.063449999999999562e+00 4.538450000000000095e+00 9.184999999999999831e-01 6.973399999999999599e-01 -1.902000000000000079e-01 1.756320000000000103e+00 3.264819999999999833e+00 1.231360000000000010e+00 2.532979999999999787e+00 5.770150000000000112e+00 -1.689299999999999968e-01 3.396809999999999885e+00 7.998800000000000354e-01 1.332160000000000011e+00 4.538009999999999877e+00 3.399270000000000014e+00 2.858210000000000139e+00 5.190080000000000027e+00 5.951929999999999943e+00 1.410809999999999897e+00 6.089310000000000223e+00 6.735400000000000276e-01 2.942429999999999879e+00 7.220200000000000173e+00 3.360959999999999948e+00 -2.002120000000000122e+00 7.859300000000000175e+00 5.868249999999999744e+00 4.354759999999999742e+00 7.859359999999999680e+00 2.548900000000000055e-01 1.680800000000000072e+00 8.206099999999999506e-01 2.459439999999999849e+00 1.237389999999999990e+00 9.533020000000000493e+00 5.268220000000000347e+00 1.493929999999999980e+00 2.760470000000000201e+00 7.061000000000000609e-02 3.113700000000000134e+00 3.524649999999999839e+00 2.889050000000000118e+00 4.497399999999999842e+00 4.352529999999999788e+00 5.281209999999999738e+00 2.884679999999999911e+00 5.229709999999999859e+00 2.414300000000000057e-01 -1.679529999999999967e+00 6.065349999999999575e+00 2.551330000000000098e+00 -1.167200000000000043e-01 6.875759999999999650e+00 5.365079999999999849e+00 1.199719999999999898e+00 2.589039999999999786e+00 7.759269999999999889e+00 4.476270000000000415e+00 1.227209999999999912e+00 2.542300000000000004e+00 -4.768800000000000261e-01 1.875760000000000094e+00 5.390019999999999811e+00 4.680920000000000414e+00 2.620870000000000033e+00 9.524000000000000521e-02 -5.732000000000000289e-02 3.560329999999999995e+00 2.818449999999999900e+00 1.368889999999999940e+00 4.249200000000000088e+00 5.039390000000000036e+00 -2.338600000000000123e-01 5.129959999999999631e+00 1.397700000000000053e-01 1.512750000000000039e+00 6.243949999999999889e+00 2.581409999999999982e+00 2.613570000000000171e+00 6.886300000000000310e+00 5.336929999999999730e+00 -1.816519999999999913e+00 7.802690000000000126e+00 3.957349999999999923e+00
1.573329999999999895e+00 7.267299999999999871e-01 5.749300000000000521e-01 3.160620000000000207e+00 1.743330000000000046e+00 3.114320000000000199e+00 4.594380000000000130e+00 2.816679999999999851e+00 5.652720000000000411e+00 2.908269999999999911e+00 3.381029999999999980e+00 6.928900000000000059e-01 4.608710000000000306e+00 4.470049999999999635e+00 3.187640000000000029e+00 6.013849999999999696e+00 5.419590000000000352e+00 5.719759999999999955e+00 4.353959999999999830e+00 6.180390000000000050e+00 5.074199999999999822e-01 5.889590000000000103e+00 7.364519999999999733e+00 3.315580000000000194e+00 7.611760000000000304e+00 8.208370000000000388e+00 5.924839999999999662e+00 4.716409999999999769e+00 9.717599999999999572e-01 5.311900000000000510e-01 6.352739999999999831e+00 1.797500000000000098e+00 3.252609999999999779e+00 7.859939999999999927e+00 2.899199999999999999e+00 5.561740000000000350e+00 6.274530000000000385e+00 3.712860000000000049e+00 6.400799999999999823e-01 7.892789999999999750e+00 4.534080000000000332e+00 3.018369999999999997e+00 9.310579999999999856e+00 5.539320000000000022e+00 5.735299999999999621e+00 7.302330000000000432e+00 6.427669999999999995e+00 9.696500000000000119e-01 9.218959999999999155e+00 7.475010000000000154e+00 3.229649999999999910e+00 1.088366000000000078e+01 8.243280000000000385e+00 5.708070000000000199e+00 1.069106000000000023e+01 7.999929999999999986e+00 9.972999999999999921e-02 1.597699999999999898e+00 1.018780000000000019e+00 2.444760000000000044e+00 1.388846000000000025e+01 9.957810000000000272e+00 5.105859999999999843e+00 7.645260000000000389e+00 2.462699999999999889e+00 9.138999999999999901e-02 3.163980000000000015e+00 3.494310000000000027e+00 2.594160000000000021e+00 1.074235999999999969e+01 4.603469999999999729e+00 5.141560000000000130e+00 8.385329999999999728e+00 5.019110000000000404e+00 7.648800000000000043e-01 4.556809999999999583e+00 6.105710000000000193e+00 2.328650000000000109e+00 6.192350000000000243e+00 7.192759999999999820e+00 5.318439999999999834e+00 1.222897999999999996e+01 1.078515999999999941e+01 7.440649999999999764e+00 4.637080000000000091e+00 9.931900000000000173e-01 2.366870000000000029e+00 6.191360000000000419e+00 2.260060000000000180e+00 5.120379999999999932e+00 4.611159999999999926e+00 2.803809999999999913e+00 1.022200000000000053e-01 6.243070000000000341e+00 3.593100000000000183e+00 2.542730000000000157e+00 7.803659999999999819e+00 4.780429999999999957e+00 4.919920000000000293e+00 5.969590000000000174e+00 5.531170000000000364e+00 1.794000000000000108e-02 7.520920000000000272e+00 6.475480000000000125e+00 2.871140000000000025e+00 8.803350000000000009e+00 7.158360000000000056e+00 5.114830000000000432e+00 1.071335999999999977e+01 8.155139999999999390e+00 3.963319999999999954e+00
1.613329999999999931e+00 9.257600000000000273e-01 6.353100000000000414e-01 2.830000000000000071e+00 1.818240000000000078e+00 3.275749999999999940e+00 4.229309999999999903e+00 2.800129999999999786e+00 5.937020000000000408e+00 3.039289999999999825e+00 3.627429999999999932e+00 7.626800000000000246e-01 4.476890000000000036e+00 4.413680000000000270e+00 3.343469999999999942e+00 -3.085100000000000064e-01 5.307050000000000267e+00 6.043650000000000411e+00 4.568240000000000300e+00 6.390340000000000131e+00 6.112400000000000055e-01 -1.156900000000000012e-01 7.289830000000000254e+00 3.287970000000000059e+00 1.383150000000000102e+00 8.072889999999999233e+00 5.899409999999999599e+00 4.669310000000000294e+00 1.006459999999999910e+00 8.092099999999999849e-01 -2.050899999999999945e-01 1.722739999999999938e+00 3.403259999999999952e+00 1.307420000000000027e+00 2.572890000000000121e+00 5.845279999999999809e+00 -8.412000000000000033e-02 3.514860000000000095e+00 8.405399999999999539e-01 1.354500000000000037e+00 4.537239999999999718e+00 3.335830000000000073e+00 2.778589999999999893e+00 5.288689999999999891e+00 6.018620000000000303e+00 1.478520000000000056e+00 6.362729999999999997e+00 7.527899999999999592e-01 2.944789999999999797e+00 7.276019999999999932e+00 3.451039999999999885e+00 -1.735440000000000094e+00 7.918009999999999771e+00 5.862820000000000142e+00 3.871000000000000135e-02 2.208400000000000085e-01 6.024000000000000188e-02 1.324279999999999902e+00 1.085939999999999905e+00 2.437940000000000218e+00 1.217549999999999910e+00 9.799879999999999924e+00 5.304009999999999891e+00 1.603539999999999965e+00 2.730919999999999792e+00 1.648199999999999943e-01 2.838900000000000201e+00 3.575349999999999806e+00 2.744050000000000100e+00 4.280700000000000394e+00 4.569549999999999557e+00 5.121800000000000352e+00 3.113109999999999822e+00 5.404969999999999608e+00 8.999000000000000055e-02 -1.528550000000000075e+00 6.109350000000000058e+00 2.423319999999999919e+00 -4.395000000000000295e-02 6.995479999999999698e+00 5.386479999999999713e+00 1.541579999999999950e+00 8.098250000000000171e+00 2.538999999999999937e-02 4.393489999999999895e+00 1.101609999999999978e+00 2.581420000000000048e+00 -1.997260000000000035e+00 9.991659999999999542e+00 5.591619999999999813e+00 4.629660000000000331e+00 2.770700000000000163e+00 2.373999999999999999e-01 -9.273000000000000687e-02 3.524849999999999817e+00 2.728920000000000012e+00 1.177159999999999984e+00 4.344439999999999635e+00 5.245540000000000092e+00 -4.007000000000000145e-02 5.351149999999999629e+00 1.822100000000000108e-01 1.477440000000000087e+00 6.308159999999999989e+00 2.636929999999999996e+00 2.784069999999999823e+00 6.997150000000000425e+00 5.414559999999999818e+00 -1.654199999999999893e+00 8.048109999999999431e+00 3.950820000000000221e+00
1.552319999999999922e+00 8.802699999999999969e-01 6.682500000000000107e-01 2.965059999999999807e+00 1.851420000000000066e+00 3.312330000000000219e+00 4.300910000000000011e+00 2.704849999999999977e+00 5.816460000000000186e+00 3.029609999999999914e+00 3.539670000000000094e+00 8.379600000000000382e-01 4.445400000000000240e+00 4.419039999999999857e+00 3.319560000000000066e+00 -7.772999999999999354e-02 5.307039999999999758e+00 5.871349999999999625e+00 4.532219999999999693e+00 6.275019999999999598e+00 6.722799999999999887e-01 -7.539999999999999480e-02 7.236970000000000347e+00 3.307739999999999903e+00 1.535549999999999971e+00 7.913859999999999673e+00 5.830409999999999648e+00 4.397529999999999717e+00 9.885000000000000453e-01 6.524199999999999999e-01 -1.892300000000000093e-01 1.656260000000000066e+00 3.380409999999999915e+00 1.381450000000000067e+00 2.622250000000000192e+00 5.738889999999999603e+00 7.678000000000000103e-02 3.643810000000000215e+00 7.769200000000000550e-01 1.335259999999999891e+00 4.519070000000000142e+00 3.320209999999999884e+00 2.967970000000000219e+00 5.278870000000000395e+00 5.808910000000000018e+00 1.543789999999999996e+00 6.264479999999999826e+00 7.301900000000000057e-01 3.015639999999999876e+00 7.090069999999999872e+00 3.287110000000000198e+00 -1.542629999999999946e+00 8.044340000000000046e+00 5.731889999999999930e+00 5.950770000000000337e+00 1.588900000000000035e-01 1.482900000000000051e-01 1.541430000000000078e+00 9.889000000000000012e-01 2.465139999999999887e+00 1.311979999999999924e+00 9.649330000000000851e+00 5.134009999999999962e+00 1.450099999999999945e+00 2.616039999999999921e+00 1.303499999999999936e-01 2.838490000000000180e+00 3.601939999999999920e+00 2.643819999999999837e+00 4.463680000000000092e+00 4.544769999999999754e+00 5.190389999999999837e+00 3.108870000000000022e+00 5.289220000000000255e+00 9.732999999999999985e-02 4.469660000000000188e+00 6.020990000000000286e+00 2.375760000000000094e+00 7.305000000000000382e-02 6.997370000000000090e+00 5.231099999999999639e+00 1.404039999999999955e+00 7.979009999999999714e+00 2.145999999999999991e-02 4.384249999999999758e+00 1.091609999999999969e+00 2.467799999999999994e+00 -2.984499999999999931e-01 1.923200000000000021e+00 5.306320000000000370e+00 4.610529999999999795e+00 2.727040000000000131e+00 1.796500000000000041e-01 -9.167999999999999761e-02 3.576890000000000125e+00 2.658689999999999998e+00 1.452099999999999946e+00 4.362700000000000244e+00 5.186230000000000118e+00 1.367899999999999949e-01 5.461260000000000225e+00 6.192000000000000282e-02 1.503409999999999913e+00 6.296689999999999898e+00 2.623060000000000169e+00 2.937450000000000117e+00 6.970150000000000290e+00 5.182299999999999685e+00 -1.648940000000000072e+00 8.047140000000000626e+00 3.860739999999999839e+00
1.499270000000000103e+00 8.400699999999999834e-01 5.647699999999999942e-01 3.067130000000000134e+00 1.783160000000000078e+00 3.337320000000000064e+00 4.710149999999999615e+00 2.765950000000000131e+00 5.614679999999999893e+00 3.008750000000000036e+00 3.499639999999999862e+00 8.998699999999999477e-01 4.654200000000000337e+00 4.420420000000000016e+00 3.127510000000000012e+00 1.927999999999999853e-02 5.262159999999999727e+00 5.657569999999999766e+00 4.439110000000000333e+00 6.190610000000000390e+00 6.703799999999999759e-01 4.488999999999999935e-02 7.204649999999999999e+00 3.133519999999999861e+00 1.453650000000000109e+00 7.990269999999999762e+00 5.932859999999999800e+00 4.656819999999999737e+00 8.472800000000000331e-01 6.359900000000000553e-01 1.629999999999999852e-02 1.682430000000000092e+00 3.190179999999999794e+00 1.637729999999999908e+00 2.610980000000000079e+00 5.712729999999999642e+00 1.367999999999999945e-02 3.532570000000000210e+00 6.360000000000000098e-01 1.579849999999999977e+00 4.618579999999999686e+00 3.178620000000000001e+00 3.092330000000000023e+00 5.246529999999999916e+00 5.681499999999999773e+00 1.452229999999999910e+00 6.344739999999999824e+00 7.494899999999999896e-01 3.131159999999999943e+00 7.237849999999999895e+00 3.185770000000000213e+00 -1.497859999999999969e+00 7.964450000000000252e+00 5.570070000000000299e+00 3.188279999999999781e+00 1.060552000000000028e+01 7.460460000000000313e+00 1.641369999999999996e+00 1.066650000000000098e+00 2.425349999999999895e+00 1.669319999999999915e+00 9.759320000000000661e+00 5.182559999999999611e+00 1.619779999999999998e+00 2.604480000000000128e+00 7.958999999999999408e-02 3.050399999999999778e+00 3.475509999999999877e+00 2.736190000000000122e+00 4.622340000000000337e+00 4.557830000000000048e+00 4.896499999999999631e+00 2.866289999999999782e+00 5.196240000000000414e+00 3.107900000000000107e-01 4.743210000000000370e+00 6.058209999999999873e+00 2.474190000000000111e+00 1.047300000000000036e-01 7.021359999999999602e+00 5.269090000000000273e+00 1.611909999999999954e+00 2.658030000000000115e+00 7.455479999999999663e+00 4.449139999999999873e+00 1.064829999999999943e+00 2.419220000000000148e+00 3.484999999999999903e-02 1.924949999999999939e+00 5.193710000000000271e+00 4.601810000000000400e+00 2.756099999999999994e+00 1.227899999999999964e-01 1.341700000000000115e-01 3.550429999999999975e+00 2.529450000000000198e+00 1.589679999999999982e+00 4.355170000000000208e+00 5.100200000000000067e+00 -2.845999999999999919e-02 5.324230000000000018e+00 1.193999999999999923e-02 1.577620000000000022e+00 6.413289999999999935e+00 2.465990000000000126e+00 3.020869999999999944e+00 7.071310000000000429e+00 5.483430000000000248e+00 -1.614379999999999926e+00 7.935299999999999798e+00 3.772100000000000009e+00