-2.786761762200000021e+02
-2.810083016400000133e+02
-2.772950014099999976e+02
-2.810998959500000183e+02
-2.810934535900000242e+02
-2.781314245400000118e+02
-2.788548449400000209e+02
-2.750973229100000026e+02
-2.809088712800000280e+02
-2.778478890200000251e+02
-2.810484942300000171e+02
-2.789423745299999950e+02
-2.795713507099999902e+02
-2.768231124499999964e+02
-2.774772419700000228e+02
-2.811538388700000155e+02
-2.783909597599999870e+02
-2.811519916699999726e+02
-2.742927740900000231e+02
-2.782888363600000048e+02
-2.811216852100000096e+02
-2.749164114800000220e+02
-2.781518309100000010e+02
-2.811528132999999912e+02
-2.780219006599999716e+02
-2.809762310799999909e+02
-2.768362093399999821e+02
-2.778997954299999833e+02
-2.811598189900000193e+02
-2.792569168300000229e+02
-2.811036915399999998e+02
-2.751478659800000059e+02
-2.808585791900000004e+02
-2.811010637900000120e+02
-2.776524429400000145e+02
-2.780445546299999933e+02
-2.810758391200000119e+02
-2.740041109200000164e+02
-2.734966565600000195e+02
-2.810371618699999772e+02
-2.784919517199999746e+02
-2.795064972999999782e+02
-2.810542365300000256e+02
-2.811744362499999852e+02
-2.811163008699999750e+02
-2.811008285099999853e+02
-2.779700556700000220e+02
-2.782923252800000000e+02
-2.811046814200000199e+02
-2.748924214200000051e+02
