-1.688071707936859767e+01 -6.709817168632514761e-01 2.418564643597574670e-01 -6.709817168632514761e-01 -6.313330807529169419e+00 2.177017654944588099e+00 2.418564643597574670e-01 2.177017654944588099e+00 -2.460077570961643811e+00
-4.361309963489079067e+00 5.924725953399874179e+00 8.919704730513635660e-01 5.924725953399874179e+00 -4.072890605127723607e-01 5.220731440561687808e-01 8.919704730513635660e-01 5.220731440561687808e-01 1.144650630657421564e+00
1.406068596634163193e+01 -3.640857423309954655e+00 -6.675360739256948339e-02 -3.640857423309954655e+00 3.835553523086010053e+00 3.427391627874115443e+00 -6.675360739256948339e-02 3.427391627874115443e+00 -3.303558681831180177e+00
2.911187691923772913e+00 -3.775990805519591209e+00 -2.569991845068356984e+00 -3.775990805519591209e+00 5.189574411528807829e+00 1.994881350150686128e+00 -2.569991845068356984e+00 1.994881350150686128e+00 1.835222965534182737e+00
-2.547113492312401917e+00 9.260658318537062783e-02 3.536819689920981391e-01 9.260658318537062783e-02 -4.485462721594407398e+00 2.289526024640662349e+00 3.536819689920981391e-01 2.289526024640662349e+00 -4.269336702401614225e+00
2.061944082338161266e+01 -4.594977468973603374e-01 4.907178916836878457e+00 -4.594977468973603374e-01 1.911522080748407859e+01 4.624530190608393987e+00 4.907178916836878457e+00 4.624530190608393987e+00 3.974028995712386436e-01
-8.577000489259216209e+00 -1.478629990569221064e+00 1.259299063196970492e+00 -1.478629990569221064e+00 -1.122391273208453732e+01 -1.069211133784970791e+00 1.259299063196970492e+00 -1.069211133784970791e+00 -1.669312042755914405e+01
-1.747941437303428458e+01 -6.170593235071106797e+00 -5.605282669174481924e+00 -6.170593235071106797e+00 -9.499683590765222618e+00 1.903206351706535626e+00 -5.605282669174481924e+00 1.903206351706535626e+00 -2.140269010797213411e+01
-7.014054055672017896e+00 -8.747670807441066287e+00 -1.817481009207294829e+00 -8.747670807441066287e+00 -5.200998143673391638e+00 3.429420296894409415e+00 -1.817481009207294829e+00 3.429420296894409415e+00 2.741095386245805443e+01
-2.203647633068875322e+01 2.772587762976161496e+00 2.860120468507597380e+00 2.772587762976161496e+00 -1.265685833287503570e+01 2.625024972972104020e+00 2.860120468507597380e+00 2.625024972972104020e+00 -4.121452484759881685e+00
4.678377931908507037e+00 3.183073005660876920e+00 1.867951039103326716e+00 3.183073005660876920e+00 4.933188467060425353e+00 1.193064637413371987e+00 1.867951039103326716e+00 1.193064637413371987e+00 4.014514476836563706e-01
3.608003379882150696e+00 7.400406462469813818e+00 5.201226964028744959e+00 7.400406462469813818e+00 -5.645673913864905913e+00 6.573517321234436217e+00 5.201226964028744959e+00 6.573517321234436217e+00 -2.536933046332022101e+00
-1.135518300516346102e+01 -1.707752751163134741e+00 2.298858606636732471e+00 -1.707752751163134741e+00 -1.121533581289221182e+01 1.908577694691169002e+00 2.298858606636732471e+00 1.908577694691169002e+00 -2.669043469919069711e+00
-2.045664671036113447e+01 -6.821940679998705903e-01 -4.935409562608349177e+00 -6.821940679998705903e-01 -1.668222020650790327e+01 7.320543818665345981e-01 -4.935409562608349177e+00 7.320543818665345981e-01 -3.479172879472625368e+01
-1.349450722697876692e+01 -2.469830346201824511e-01 2.339341372540232999e+00 -2.469830346201824511e-01 -5.185983772749349185e+00 -1.789703792902790802e+00 2.339341372540232999e+00 -1.789703792902790802e+00 -2.010511148481056054e+01
-4.561309233047925460e+00 -7.654740267401055620e-01 4.362217766815802422e-01 -7.654740267401055620e-01 -5.541421937553125510e+00 1.367810691737135764e+00 4.362217766815802422e-01 1.367810691737135764e+00 -2.060853557838489891e+00
1.960483326793338588e-01 -6.621880883975761023e+00 -5.099012169417544094e+00 -6.621880883975761023e+00 -1.675818675043868566e+01 3.764430796490334519e+00 -5.099012169417544094e+00 3.764430796490334519e+00 -2.456372260332722490e+01
-4.676274335054044329e+00 1.277753465254086951e+00 -2.078701010154266893e-01 1.277753465254086951e+00 -1.024147744572471375e+00 2.067422151228596405e+00 -2.078701010154266893e-01 2.067422151228596405e+00 -7.561910141375952854e+00
5.514426774498061512e+00 5.310802934523974894e-01 -3.343342489167109743e+00 5.310802934523974894e-01 6.078656876513170992e+00 7.909918764952797332e+00 -3.343342489167109743e+00 7.909918764952797332e+00 5.368120626816097918e+00
-5.734049083451176365e+00 2.227162898587807582e+00 3.448244867807142011e+00 2.227162898587807582e+00 1.011832985293936282e+01 5.161930244683385904e-01 3.448244867807142011e+00 5.161930244683385904e-01 4.763678299535935246e+00
-6.434971247692059748e+00 1.022546606830627702e+00 3.106904273531947980e-01 1.022546606830627702e+00 -1.008260790545515562e+01 3.394475218079910483e+00 3.106904273531947980e-01 3.394475218079910483e+00 -1.162751256463228700e+01
-1.672495701174303351e+00 1.395491788283915113e+01 2.003057067385571433e+00 1.395491788283915113e+01 -3.827397386392701772e+00 6.310844251656442694e+00 2.003057067385571433e+00 6.310844251656442694e+00 -7.427799443348478192e+00
-2.751777135236140026e+01 4.764132951339377975e+00 -4.014191544529438493e-01 4.764132951339377975e+00 2.462570953322052780e+00 -4.487335476741661999e+00 -4.014191544529438493e-01 -4.487335476741661999e+00 -1.417593478626949022e+01
-3.507278101123874059e+00 3.547373286883971910e-01 7.993078453495621183e-01 3.547373286883971910e-01 -5.897844700644696125e+00 3.592745400420569002e+00 7.993078453495621183e-01 3.592745400420569002e+00 -9.132826229495188741e+00
-8.973533610900856772e+00 3.306957444988057215e+00 1.264247645250196062e-01 3.306957444988057215e+00 7.645235997823963958e-02 -8.567970204174785165e-01 1.264247645250196062e-01 -8.567970204174785165e-01 5.859359854250173250e+00
1.035190112479541824e+01 -1.461492660626029672e+00 -4.482122592982581422e-01 -1.461492660626029672e+00 1.498980656745303897e+01 2.908679683622006351e+00 -4.482122592982581422e-01 2.908679683622006351e+00 1.012374029210454474e+01
-1.929979107113197756e+01 2.064473881228553687e+00 -1.040231141622973476e+00 2.064473881228553687e+00 -8.769058311335346190e+00 -7.683850629642107188e-01 -1.040231141622973476e+00 -7.683850629642107188e-01 2.596283448556893525e+00
-7.058636154849993183e+00 -2.214147764502601756e+00 -1.875360135796495076e+00 -2.214147764502601756e+00 -1.195761308642063980e+01 -3.571642939234010328e+00 -1.875360135796495076e+00 -3.571642939234010328e+00 -1.343339623247582004e+01
-4.169336227383926285e+00 -3.268589692980129247e+00 -2.615492576785741097e+00 -3.268589692980129247e+00 -7.847616615083339298e+00 3.108383417848092911e+00 -2.615492576785741097e+00 3.108383417848092911e+00 -6.782757028420494549e+00
-2.004950839420233388e-01 2.906104480816356084e+00 3.383958194601766056e+00 2.906104480816356084e+00 -6.833352866978981588e+00 2.834870997910758916e+00 3.383958194601766056e+00 2.834870997910758916e+00 -3.092873050190190654e+01
6.542615281942440575e+00 -1.509689463749586957e-01 -1.007412503699724349e+00 -1.509689463749586957e-01 1.279937678494842146e+01 1.868466901398527114e+00 -1.007412503699724349e+00 1.868466901398527114e+00 5.791323164782069988e+00
-1.661229365744233633e+01 8.860084380414223304e+00 3.558994412278275288e+00 8.860084380414223304e+00 -1.454000180283059862e+01 -2.024637590166643797e+00 3.558994412278275288e+00 -2.024637590166643797e+00 1.083028637484345857e+01
3.400589038474962855e+00 4.385038199721150498e+00 7.872132529009820967e-01 4.385038199721150498e+00 6.547079943392121848e+00 9.465593220090051663e-01 7.872132529009820967e-01 9.465593220090051663e-01 1.639833514622164046e+01
8.175029268984003394e+00 -1.164242507144071653e-01 -6.271683948268237385e-01 -1.164242507144071653e-01 1.262751618535666331e+01 2.549970417264733946e+00 -6.271683948268237385e-01 2.549970417264733946e+00 3.492390955751683901e+00
-1.720873344252393977e+01 -5.038027649565939292e-01 7.425172203683417793e-01 -5.038027649565939292e-01 -6.186184614754003386e-01 2.161823405094961625e+00 7.425172203683417793e-01 2.161823405094961625e+00 1.140595416579081700e+01
-1.265779187993884003e+00 4.954046199153901320e+00 3.468152108649333876e+00 4.954046199153901320e+00 -1.119284314639530598e+00 1.870815135993836864e-01 3.468152108649333876e+00 1.870815135993836864e-01 -9.905958245183537514e+00
7.371704374673686111e+00 7.643454940753485749e-01 3.839765370262503419e-01 7.643454940753485749e-01 1.631981435861994711e+01 6.450089307101622982e-01 3.839765370262503419e-01 6.450089307101622982e-01 8.025874330782666988e+00
-7.247464555163135813e+00 -3.471581669939285408e+00 -2.681516643170405723e-01 -3.471581669939285408e+00 1.453081554378917062e+00 -4.796799759437064381e+00 -2.681516643170405723e-01 -4.796799759437064381e+00 1.906586926948643423e+01
-7.834539987007581585e-01 3.733384261700519957e+00 1.031522357926043121e+01 3.733384261700519957e+00 3.532983960426391956e+00 5.151550566233967565e+00 1.031522357926043121e+01 5.151550566233967565e+00 -9.775665305615376610e+00
3.921936890154109179e+00 -4.438922664626313574e-01 5.032109718974626666e-01 -4.438922664626313574e-01 1.015789590508376250e+01 -1.551671674525622269e+00 5.032109718974626666e-01 -1.551671674525622269e+00 6.958165689191789127e+00
5.273451051758986985e+00 8.268339725967017717e-01 -3.821993128152188834e+00 8.268339725967017717e-01 1.756259457290311943e+01 1.509297379881111789e+00 -3.821993128152188834e+00 1.509297379881111789e+00 2.197211673981211977e+00
-6.641469094154243136e-01 2.281059422539357950e-01 -5.518432062335112270e-02 2.281059422539357950e-01 6.901487199119900051e-01 2.008624670156098357e+00 -5.518432062335112270e-02 2.008624670156098357e+00 3.051251465254455342e-01
5.246077712248966129e+00 -1.213076698178124913e+00 -6.038201860036788160e-01 -1.213076698178124913e+00 6.047345815753918608e+00 1.662928097317423193e+00 -6.038201860036788160e-01 1.662928097317423193e+00 9.659887864792022327e+00
4.792910368973274382e-01 -4.671322626388845767e-01 -1.444811643160509862e-01 -4.671322626388845767e-01 8.582955325032434191e-01 1.160110021713826045e+00 -1.444811643160509862e-01 1.160110021713826045e+00 -1.170211983352897223e+00
-2.493164734582320907e+00 1.218932913356859826e+00 9.281492751159765853e-02 1.218932913356859826e+00 -1.130063185121526992e+01 3.572940661169069276e+00 9.281492751159765853e-02 3.572940661169069276e+00 -9.179014606467395865e+00
-7.173088092687772033e+00 -6.738067007881681780e-01 -8.907076831647737780e-01 -6.738067007881681780e-01 -6.679389712055365358e+00 3.684830838419473675e+00 -8.907076831647737780e-01 3.684830838419473675e+00 -1.063096497048210232e+01
-4.701250076355025342e+00 2.811748063454043489e+00 2.997908390232625120e+00 2.811748063454043489e+00 -9.331926138798452897e+00 1.669494136966246378e+00 2.997908390232625120e+00 1.669494136966246378e+00 -8.026342688841861417e+00
-9.701633163747159116e+00 -2.337936017553505330e+00 -2.066329392090415773e+00 -2.337936017553505330e+00 4.373966207055953070e+00 1.533844726734692632e+00 -2.066329392090415773e+00 1.533844726734692632e+00 -1.396760129327670619e+01
-4.802766532876587391e+00 8.435270542026438445e-01 -5.202927423003896878e-01 8.435270542026438445e-01 -3.054601095570976366e+00 2.359737855922999117e+00 -5.202927423003896878e-01 2.359737855922999117e+00 -2.673200947831559038e+00
-1.367490524904961013e+01 -1.218172697749327860e+01 -8.319460777471498147e+00 -1.218172697749327860e+01 1.437138984473964065e+01 2.684723092238549658e+00 -8.319460777471498147e+00 2.684723092238549658e+00 -4.152542495539718992e+00
