8.648270000000000124e+00 1.128799999999999942e-01 6.733999999999999708e-02 5.720439999999999969e+00 8.079290000000000305e+00 2.311960000000000015e+00 1.582503999999999955e+01 8.933329999999999771e+00 4.911240000000000272e+00 1.496240000000000014e+00 2.253600000000000048e+00 1.072300000000000059e-01 1.117374000000000045e+01 3.252190000000000136e+00 2.505539999999999878e+00 4.371220000000000105e+00 3.986299999999999955e+00 4.734989999999999810e+00 2.794639999999999791e+00 4.690170000000000172e+00 4.676000000000000295e-02 4.319749999999999979e+00 5.579369999999999941e+00 2.323789999999999800e+00 5.976969999999999672e+00 6.494480000000000253e+00 4.665709999999999802e+00 7.054009999999999891e+00 2.464440000000000186e+00 6.990800000000000125e+00 8.731970000000000454e+00 8.098839999999999151e+00 2.418099999999999916e+00 1.008473000000000042e+01 8.812599999999999767e+00 4.711700000000000443e+00 8.455299999999999372e+00 4.931650000000000311e+00 7.023970000000000269e+00 5.533240000000000158e+00 3.372770000000000046e+00 2.227720000000000145e+00 7.173149999999999693e+00 3.975719999999999921e+00 4.646799999999999820e+00 9.892540000000000333e+00 7.376260000000000261e+00 7.001879999999999882e+00 7.261660000000000004e+00 5.815290000000000070e+00 2.388570000000000082e+00 8.737899999999999778e+00 6.438609999999999722e+00 4.758899999999999686e+00 1.434234000000000009e+01 9.608520000000000394e+00 6.975850000000000328e+00 1.147344000000000008e+01 8.101900000000000546e+00 2.422109999999999985e+00 1.304574000000000034e+01 8.794840000000000657e+00 4.790379999999999860e+00 7.109750000000000014e+00 2.496189999999999909e+00 1.913100000000000078e-01 8.516189999999999927e+00 3.349569999999999936e+00 2.321480000000000210e+00 1.010537000000000063e+01 4.096689999999999721e+00 4.817719999999999558e+00 1.271024000000000065e+01 7.243970000000000020e+00 7.056370000000000253e+00 1.013794000000000040e+01 5.770360000000000156e+00 2.307069999999999954e+00 1.138194000000000017e+01 6.570549999999999891e+00 4.640749999999999709e+00 2.916269999999999918e+00 1.553690000000000015e+00 1.344710000000000072e+00 4.273290000000000255e+00 2.542969999999999953e+00 3.373130000000000184e+00 5.688939999999999664e+00 3.402649999999999952e+00 5.963440000000000296e+00 4.178009999999999557e+00 4.203649999999999665e+00 1.003270000000000106e+00 5.731790000000000163e+00 4.935920000000000307e+00 3.381289999999999907e+00 7.248359999999999914e+00 5.635620000000000296e+00 5.713720000000000354e+00 5.683629999999999960e+00 6.560690000000000133e+00 1.248960000000000070e+00 7.208350000000000257e+00 7.227050000000000196e+00 3.604480000000000128e+00 8.660230000000000317e+00 7.978930000000000078e+00 5.818769999999999776e+00 5.725730000000000430e+00 1.603830000000000089e+00 1.170979999999999910e+00 7.362320000000000420e+00 2.387249999999999872e+00 3.545659999999999812e+00 8.491759999999999309e+00 3.214960000000000040e+00 5.809569999999999901e+00 7.113209999999999589e+00 4.136549999999999727e+00 1.190350000000000019e+00 8.887499999999999289e+00 4.845049999999999635e+00 3.388139999999999930e+00 1.027434000000000047e+01 5.782460000000000377e+00 5.867820000000000036e+00 8.667199999999999349e+00 6.437850000000000072e+00 1.103329999999999922e+00 9.990539999999999310e+00 7.194449999999999790e+00 3.593750000000000000e+00 1.142393999999999998e+01 8.089069999999999538e+00 5.950840000000000352e+00 8.633010000000000517e+00 1.761910000000000087e+00 1.173720000000000097e+00 1.018103999999999942e+01 2.422730000000000050e+00 3.908500000000000085e+00 1.162313999999999936e+01 3.363300000000000178e+00 5.818139999999999645e+00 9.871750000000000469e+00 4.170539999999999914e+00 1.125890000000000057e+00 1.168674000000000035e+01 4.938729999999999620e+00 3.661259999999999959e+00 1.150624000000000002e+01 6.541159999999999641e+00 1.016929999999999890e+00 1.292783999999999978e+01 7.332699999999999996e+00 3.626209999999999933e+00 1.443904000000000032e+01 7.884859999999999758e+00 5.971390000000000420e+00
4.297229999999999883e+00 7.246909999999999741e+00 1.484000000000000076e-02 5.681560000000000166e+00 8.106339999999999435e+00 2.316969999999999974e+00 7.209159999999999791e+00 8.969929999999999737e+00 4.649259999999999948e+00 5.741220000000000212e+00 4.853979999999999961e+00 6.861250000000000071e+00 1.126862999999999992e+01 3.350690000000000168e+00 2.222989999999999799e+00 4.371120000000000339e+00 3.998829999999999885e+00 4.549760000000000026e+00 1.560285999999999973e+01 7.361309999999999576e+00 6.884159999999999613e+00 1.265141999999999989e+01 5.782770000000000188e+00 2.305689999999999795e+00 5.735059999999999825e+00 6.616579999999999906e+00 4.573739999999999917e+00 7.095970000000000333e+00 7.463160000000000238e+00 4.580000000000000043e-02 4.316659999999999719e+00 8.803699999999999859e-01 2.276489999999999903e+00 1.007155999999999985e+01 9.033289999999999154e+00 4.688019999999999854e+00 8.472139999999999560e+00 4.905820000000000292e+00 6.758779999999999788e+00 5.570820000000000327e+00 3.326029999999999820e+00 2.323329999999999895e+00 7.122539999999999871e+00 4.131300000000000416e+00 4.567960000000000242e+00 9.955650000000000333e+00 7.400319999999999787e+00 6.892599999999999838e+00 7.091660000000000075e+00 5.855889999999999596e+00 2.384819999999999940e+00 8.562319999999999709e+00 6.620370000000000310e+00 4.557579999999999742e+00 9.961479999999999890e+00 7.424500000000000099e+00 1.236499999999999960e-01 7.132670000000000066e+00 8.165799999999999725e-01 2.203469999999999818e+00 1.269963000000000086e+01 8.957330000000000680e+00 4.567179999999999573e+00 1.136562999999999946e+01 4.855439999999999756e+00 6.898830000000000240e+00 8.443170000000000286e+00 3.258680000000000021e+00 2.305540000000000145e+00 9.851029999999999731e+00 4.210950000000000415e+00 4.564359999999999751e+00 1.281056000000000061e+01 7.456850000000000200e+00 6.887290000000000134e+00 9.957770000000000010e+00 5.771309999999999718e+00 2.317060000000000120e+00 1.119502999999999915e+01 6.631249999999999645e+00 4.540460000000000385e+00 2.713849999999999874e+00 1.699449999999999905e+00 1.135729999999999906e+00 4.350200000000000067e+00 2.405229999999999979e+00 3.570840000000000014e+00 5.768410000000000259e+00 3.330950000000000077e+00 5.772160000000000402e+00 4.209329999999999572e+00 4.150129999999999875e+00 1.116090000000000027e+00 5.779790000000000205e+00 4.961299999999999599e+00 3.539159999999999862e+00 7.002250000000000085e+00 5.838199999999999612e+00 5.632869999999999600e+00 5.738940000000000374e+00 6.603279999999999816e+00 1.227009999999999934e+00 7.218359999999999665e+00 7.450980000000000381e+00 3.517500000000000071e+00 8.615140000000000242e+00 8.091749999999999332e+00 5.767290000000000028e+00 5.645010000000000083e+00 1.562510000000000066e+00 1.107420000000000071e+00 7.114580000000000126e+00 2.318350000000000133e+00 3.363210000000000033e+00 8.614750000000000796e+00 3.310919999999999863e+00 5.762889999999999624e+00 7.216809999999999725e+00 4.088390000000000413e+00 1.117629999999999901e+00 8.489839999999999165e+00 5.102470000000000283e+00 3.465850000000000097e+00 1.018052999999999919e+01 5.658450000000000202e+00 5.700730000000000075e+00 8.550169999999999604e+00 6.582440000000000069e+00 1.230010000000000048e+00 9.891239999999999810e+00 7.388639999999999652e+00 3.347189999999999888e+00 1.134763000000000055e+01 8.225669999999999149e+00 5.930790000000000006e+00 8.558249999999999247e+00 1.637159999999999949e+00 1.082419999999999938e+00 9.837920000000000442e+00 2.504080000000000084e+00 3.489139999999999908e+00 1.164682999999999957e+01 3.252029999999999976e+00 5.787620000000000431e+00 9.993769999999999598e+00 4.180729999999999613e+00 9.653500000000000414e-01 1.123812999999999995e+01 4.943220000000000169e+00 3.430610000000000159e+00 1.129912999999999990e+01 6.569029999999999703e+00 1.194220000000000059e+00 1.272442999999999991e+01 7.215099999999999625e+00 3.654739999999999878e+00 1.410613000000000028e+01 8.286350000000000549e+00 5.690839999999999677e+00
8.315229999999999677e+00 4.551999999999999796e-02 1.202199999999999935e-01 1.396269000000000027e+01 8.273250000000000881e+00 2.307830000000000048e+00 1.113733000000000040e+01 1.649850000000000039e+00 4.640419999999999767e+00 9.702379999999999782e+00 2.424920000000000186e+00 6.187000000000000138e-02 1.121669999999999945e+01 3.367049999999999876e+00 2.325200000000000156e+00 1.234379000000000026e+01 4.048790000000000333e+00 4.688480000000000203e+00 6.992029999999999745e+00 7.369790000000000063e+00 6.960589999999999833e+00 4.335980000000000167e+00 5.793379999999999974e+00 2.180810000000000137e+00 5.605839999999999712e+00 6.709800000000000431e+00 4.539049999999999585e+00 1.115009000000000050e+01 9.863210000000000477e+00 6.891149999999999665e+00 4.225889999999999702e+00 7.931399999999999562e-01 2.208800000000000097e+00 9.790039999999999409e+00 9.091929999999999623e+00 4.688369999999999926e+00 4.218810000000000393e+00 2.592119999999999980e+00 1.264899999999999913e-01 5.470119999999999649e+00 3.271009999999999973e+00 2.518940000000000179e+00 6.952060000000000350e+00 4.096589999999999954e+00 4.717629999999999768e+00 9.683149999999999480e+00 7.312909999999999577e+00 7.003490000000000215e+00 7.070359999999999978e+00 5.820319999999999716e+00 2.188149999999999817e+00 8.333619999999999806e+00 6.735739999999999839e+00 4.805699999999999861e+00 9.752290000000000347e+00 7.497650000000000148e+00 4.961000000000000132e-02 7.033830000000000027e+00 8.494599999999999929e-01 2.373299999999999965e+00 8.368940000000000268e+00 1.764669999999999961e+00 4.586570000000000036e+00 6.886779999999999902e+00 2.435150000000000148e+00 5.607999999999999791e-02 8.430020000000000735e+00 3.517290000000000028e+00 2.324910000000000032e+00 9.686500000000000554e+00 4.087920000000000442e+00 4.712959999999999816e+00 8.562549999999999883e+00 5.011239999999999917e+00 1.812000000000000069e-02 9.842610000000000525e+00 5.882430000000000270e+00 2.348030000000000062e+00 1.113058999999999976e+01 6.806400000000000006e+00 4.748669999999999725e+00 2.659120000000000150e+00 1.615660000000000096e+00 1.184250000000000025e+00 4.237540000000000084e+00 2.430600000000000094e+00 3.645579999999999821e+00 5.573000000000000398e+00 3.333260000000000112e+00 5.902160000000000295e+00 4.126870000000000260e+00 4.176099999999999923e+00 1.214939999999999909e+00 5.679319999999999702e+00 4.989899999999999558e+00 3.501059999999999839e+00 6.764619999999999855e+00 5.771560000000000024e+00 5.864899999999999558e+00 5.631260000000000154e+00 6.585340000000000416e+00 1.002189999999999914e+00 7.101060000000000372e+00 7.323179999999999801e+00 3.393419999999999881e+00 8.442629999999999413e+00 8.265679999999999694e+00 5.737529999999999575e+00 5.445179999999999687e+00 1.894069999999999920e+00 1.258839999999999959e+00 6.881639999999999979e+00 2.483900000000000219e+00 3.556049999999999933e+00 8.320959999999999468e+00 3.333250000000000046e+00 5.940680000000000405e+00 7.026410000000000267e+00 4.371039999999999814e+00 1.056540000000000035e+00 8.472559999999999647e+00 5.122080000000000410e+00 3.438079999999999803e+00 9.906990000000000407e+00 5.597500000000000142e+00 5.696579999999999977e+00 8.538510000000000488e+00 6.545589999999999797e+00 9.667999999999999927e-01 9.767839999999999634e+00 7.501780000000000115e+00 3.558079999999999909e+00 1.147539000000000087e+01 8.261449999999999960e+00 5.871999999999999886e+00 8.305989999999999540e+00 1.607560000000000100e+00 1.185799999999999965e+00 9.805270000000000152e+00 2.506740000000000190e+00 3.490850000000000009e+00 1.103729000000000049e+01 3.163920000000000066e+00 6.002609999999999779e+00 9.768069999999999808e+00 3.974130000000000162e+00 1.145399999999999974e+00 1.123418999999999990e+01 5.171689999999999898e+00 3.687199999999999811e+00 1.122888999999999982e+01 6.525640000000000107e+00 1.224140000000000006e+00 1.271068999999999960e+01 7.366859999999999964e+00 3.498569999999999958e+00 1.406648999999999994e+01 8.168480000000000629e+00 5.897400000000000198e+00
1.690521000000000029e+01 9.913629999999999498e+00 6.982420000000000293e+00 5.611040000000000028e+00 8.140439999999999898e+00 2.285280000000000200e+00 1.132475999999999949e+01 1.805269999999999930e+00 4.445159999999999556e+00 9.929040000000000532e+00 2.368459999999999788e+00 2.308199999999999974e-01 2.900999999999999801e+00 3.389569999999999972e+00 2.365629999999999900e+00 4.383029999999999760e+00 4.054809999999999803e+00 4.461899999999999977e+00 7.095259999999999678e+00 7.417720000000000091e+00 6.928200000000000358e+00 1.267218000000000089e+01 5.915110000000000312e+00 2.302080000000000126e+00 5.914550000000000196e+00 6.636199999999999655e+00 4.658509999999999707e+00 7.010659999999999670e+00 7.289369999999999905e+00 2.523999999999999855e-02 8.515240000000000364e+00 8.224690000000000722e+00 2.325699999999999878e+00 9.915779999999999816e+00 9.095810000000000173e+00 4.656979999999999897e+00 8.474640000000000839e+00 4.988940000000000374e+00 6.995230000000000281e+00 5.705219999999999736e+00 3.410519999999999996e+00 2.204759999999999831e+00 7.051300000000000345e+00 4.125820000000000043e+00 4.677249999999999908e+00 5.492180000000000284e+00 4.951399999999999579e+00 1.199400000000000049e-01 7.095030000000000392e+00 5.814930000000000376e+00 2.371719999999999828e+00 8.672890000000000654e+00 6.732179999999999609e+00 4.668720000000000425e+00 1.002899999999999991e+01 2.669010000000000105e+00 6.921479999999999855e+00 7.139910000000000423e+00 8.616700000000000470e-01 2.311710000000000154e+00 1.280607000000000006e+01 9.100379999999999470e+00 4.739630000000000010e+00 1.135421000000000014e+01 5.064049999999999940e+00 6.944289999999999630e+00 8.496109999999999829e+00 3.409390000000000143e+00 2.458190000000000097e+00 9.965490000000000848e+00 4.229330000000000034e+00 4.576380000000000337e+00 8.370499999999999829e+00 4.844599999999999795e+00 4.331000000000000127e-02 9.850699999999999790e+00 5.688760000000000261e+00 2.310090000000000199e+00 1.142156999999999911e+01 6.595860000000000056e+00 4.671009999999999884e+00 2.789079999999999782e+00 1.477470000000000061e+00 1.298939999999999984e+00 4.384660000000000224e+00 2.509170000000000122e+00 3.472910000000000164e+00 5.575779999999999959e+00 3.309769999999999879e+00 5.847150000000000070e+00 4.172880000000000145e+00 4.217069999999999652e+00 1.250140000000000029e+00 5.705259999999999998e+00 4.928729999999999833e+00 3.380349999999999966e+00 6.816600000000000215e+00 5.726919999999999789e+00 5.996719999999999828e+00 5.545169999999999710e+00 6.595480000000000231e+00 1.152530000000000054e+00 7.127690000000000303e+00 7.463899999999999757e+00 3.461300000000000043e+00 8.634539999999999438e+00 8.275420000000000442e+00 5.919349999999999667e+00 5.697289999999999743e+00 1.765479999999999938e+00 1.011160000000000059e+00 7.261860000000000426e+00 2.472550000000000026e+00 3.396539999999999893e+00 8.442500000000000782e+00 3.358680000000000110e+00 5.957119999999999749e+00 7.009870000000000267e+00 4.200829999999999842e+00 1.088230000000000031e+00 8.493489999999999540e+00 5.134719999999999729e+00 3.703699999999999992e+00 1.007696999999999932e+01 5.860920000000000130e+00 5.798799999999999955e+00 8.456950000000000855e+00 6.407790000000000319e+00 1.075679999999999970e+00 9.864169999999999661e+00 7.566869999999999763e+00 3.468609999999999971e+00 1.140877000000000052e+01 8.256339999999999790e+00 5.787639999999999674e+00 8.533279999999999532e+00 1.832629999999999981e+00 1.232930000000000081e+00 9.921279999999999433e+00 2.551590000000000025e+00 3.446899999999999853e+00 1.133356999999999992e+01 3.387329999999999952e+00 5.752399999999999736e+00 9.861140000000000683e+00 4.105480000000000018e+00 1.270070000000000032e+00 1.141696999999999917e+01 5.020870000000000388e+00 3.585550000000000015e+00 1.112817000000000078e+01 6.615330000000000155e+00 1.092969999999999997e+00 1.287786999999999971e+01 7.377580000000000027e+00 3.700410000000000199e+00 1.434206999999999965e+01 8.291930000000000689e+00 5.719929999999999737e+00
1.294530999999999921e+01 2.521850000000000147e+00 7.043029999999999902e+00 1.472939999999999916e+00 8.139199999999999768e-01 2.275659999999999794e+00 1.136670999999999943e+01 1.644640000000000102e+00 4.715480000000000338e+00 1.014330999999999960e+01 2.523779999999999912e+00 1.483200000000000074e-01 3.131060000000000176e+00 3.409349999999999881e+00 2.226500000000000146e+00 4.514359999999999928e+00 3.866950000000000109e+00 4.606840000000000046e+00 1.566090999999999944e+01 7.331489999999999618e+00 6.906360000000000277e+00 4.446959999999999802e+00 5.665029999999999788e+00 2.199990000000000112e+00 5.831179999999999808e+00 6.461339999999999861e+00 4.628989999999999938e+00 1.170200999999999958e+01 9.748359999999999914e+00 7.068830000000000169e+00 4.354630000000000223e+00 9.696399999999999464e-01 2.374519999999999964e+00 1.037931000000000026e+01 8.964700000000000557e+00 4.707239999999999647e+00 8.769289999999999807e+00 4.666319999999999801e+00 7.038109999999999644e+00 6.018900000000000361e+00 3.328910000000000036e+00 2.380640000000000089e+00 7.334050000000000402e+00 4.217690000000000161e+00 4.805920000000000414e+00 1.025561000000000078e+01 7.282960000000000100e+00 7.009059999999999846e+00 7.114060000000000272e+00 5.840889999999999915e+00 2.329390000000000072e+00 8.749589999999999534e+00 6.426840000000000330e+00 4.692219999999999835e+00 1.457811000000000057e+01 9.719670000000000698e+00 7.020470000000000432e+00 7.248070000000000235e+00 8.362899999999999778e-01 2.304969999999999963e+00 8.621639999999999304e+00 1.624970000000000026e+00 4.781859999999999999e+00 7.156839999999999868e+00 2.377949999999999786e+00 1.630199999999999982e-01 8.708370000000000388e+00 3.283199999999999896e+00 2.338140000000000107e+00 1.009628999999999976e+01 4.131280000000000285e+00 4.558290000000000397e+00 8.676090000000000302e+00 4.916380000000000194e+00 1.048199999999999965e-01 1.015061000000000035e+01 5.850389999999999979e+00 2.264120000000000132e+00 1.160181000000000040e+01 6.497650000000000148e+00 4.738069999999999560e+00 2.898829999999999796e+00 1.628300000000000081e+00 1.179140000000000077e+00 4.512220000000000120e+00 2.386410000000000142e+00 3.583660000000000068e+00 5.941189999999999749e+00 3.376860000000000195e+00 5.943870000000000431e+00 4.293969999999999843e+00 3.904850000000000154e+00 1.039199999999999902e+00 5.985529999999999795e+00 4.770450000000000301e+00 3.547489999999999810e+00 7.093820000000000014e+00 5.775859999999999772e+00 5.787340000000000373e+00 5.781349999999999767e+00 6.554909999999999570e+00 1.089180000000000037e+00 7.121319999999999872e+00 7.457349999999999923e+00 3.594460000000000210e+00 8.680790000000000006e+00 8.074429999999999552e+00 6.049739999999999895e+00 5.751240000000000130e+00 1.599380000000000024e+00 1.168840000000000101e+00 7.389499999999999957e+00 2.393040000000000056e+00 3.627499999999999947e+00 8.790089999999999293e+00 3.194719999999999782e+00 5.951240000000000308e+00 7.293110000000000426e+00 4.004430000000000156e+00 1.095280000000000031e+00 8.585710000000000619e+00 4.878669999999999618e+00 3.511660000000000004e+00 1.035580999999999996e+01 5.773469999999999658e+00 5.813069999999999737e+00 8.691700000000000870e+00 6.536220000000000141e+00 1.261109999999999953e+00 1.022040999999999933e+01 7.340860000000000163e+00 3.713950000000000085e+00 1.181320999999999977e+01 8.125840000000000174e+00 5.935559999999999725e+00 8.673679999999999168e+00 1.688260000000000094e+00 1.280019999999999936e+00 1.011773999999999951e+01 2.397370000000000001e+00 3.479309999999999903e+00 1.156630999999999965e+01 3.233600000000000030e+00 5.844030000000000058e+00 1.007187000000000054e+01 4.137870000000000381e+00 1.312540000000000040e+00 1.169491000000000014e+01 4.730059999999999931e+00 3.639470000000000205e+00 1.161711000000000027e+01 6.552019999999999733e+00 1.034499999999999975e+00 1.294430999999999976e+01 7.162119999999999820e+00 3.618650000000000144e+00 1.432850999999999964e+01 8.251860000000000639e+00 5.894029999999999880e+00
1.292112000000000016e+01 7.474920000000000009e+00 4.129999999999999991e-03 1.525339999999999918e+00 9.648400000000000309e-01 2.163759999999999906e+00 1.160337999999999958e+01 1.884020000000000028e+00 4.539550000000000196e+00 5.898859999999999992e+00 5.024740000000000428e+00 6.958960000000000257e+00 2.881909999999999972e+00 3.310280000000000111e+00 2.251840000000000064e+00 4.630370000000000097e+00 4.131929999999999659e+00 4.598620000000000374e+00 1.587945000000000029e+01 7.512920000000000265e+00 6.907980000000000231e+00 4.465290000000000425e+00 5.862040000000000362e+00 2.320850000000000080e+00 5.969999999999999751e+00 6.990709999999999980e+00 4.457239999999999647e+00 7.318260000000000431e+00 7.477570000000000050e+00 1.054999999999999966e-01 8.858850000000000335e+00 8.221909999999999386e+00 2.370229999999999837e+00 5.859420000000000073e+00 1.669259999999999966e+00 4.644870000000000054e+00 4.325149999999999828e+00 2.549929999999999808e+00 7.102999999999999592e-02 5.786159999999999748e+00 3.242090000000000138e+00 2.360040000000000138e+00 7.291240000000000165e+00 4.146279999999999966e+00 4.733769999999999811e+00 5.779969999999999608e+00 5.002939999999999721e+00 8.377999999999999337e-02 7.191519999999999690e+00 5.837259999999999671e+00 2.244439999999999991e+00 8.667640000000000455e+00 6.791929999999999801e+00 4.625420000000000087e+00 5.805749999999999744e+00 3.559999999999999970e-02 6.289999999999999758e-02 1.145315000000000083e+01 8.321360000000000312e+00 2.346600000000000019e+00 1.305701999999999963e+01 9.149729999999999919e+00 4.657680000000000042e+00 7.124670000000000059e+00 2.589309999999999778e+00 1.106499999999999984e-01 8.733140000000000569e+00 3.281260000000000066e+00 2.285610000000000142e+00 1.035854999999999926e+01 4.201459999999999972e+00 4.510080000000000311e+00 8.690839999999999677e+00 4.866740000000000066e+00 6.146000000000000074e-02 1.025605000000000011e+01 5.689129999999999576e+00 2.317790000000000017e+00 1.154325000000000045e+01 6.762979999999999769e+00 4.661990000000000300e+00 2.797890000000000210e+00 1.637369999999999992e+00 1.040229999999999988e+00 4.288780000000000037e+00 2.444570000000000132e+00 3.344669999999999810e+00 5.728040000000000020e+00 3.393639999999999990e+00 5.706949999999999967e+00 4.245680000000000121e+00 4.192610000000000170e+00 1.094950000000000090e+00 5.907840000000000202e+00 5.038920000000000066e+00 3.466479999999999784e+00 7.177629999999999733e+00 6.033920000000000172e+00 5.700079999999999814e+00 5.884940000000000282e+00 6.513329999999999842e+00 1.238080000000000069e+00 7.435120000000000395e+00 7.707300000000000040e+00 3.436879999999999935e+00 8.684010000000000673e+00 8.391759999999999664e+00 5.760919999999999597e+00 5.829410000000000203e+00 1.689089999999999980e+00 1.180269999999999930e+00 7.024189999999999934e+00 2.458130000000000148e+00 3.623099999999999987e+00 8.673040000000000305e+00 3.112049999999999983e+00 5.890670000000000073e+00 7.466020000000000323e+00 4.008619999999999628e+00 1.198350000000000026e+00 8.676180000000000447e+00 5.001219999999999999e+00 3.470400000000000151e+00 1.032815000000000083e+01 5.889899999999999913e+00 6.001050000000000217e+00 8.782149999999999679e+00 6.674190000000000289e+00 1.296510000000000051e+00 1.017464999999999975e+01 7.574029999999999596e+00 3.560249999999999915e+00 1.138054999999999950e+01 8.345829999999999416e+00 5.895539999999999559e+00 8.519090000000000273e+00 1.587180000000000035e+00 1.057549999999999990e+00 1.008225999999999978e+01 2.562469999999999803e+00 3.528669999999999973e+00 1.163524999999999920e+01 3.413289999999999935e+00 5.803250000000000242e+00 1.011974999999999980e+01 4.117289999999999672e+00 1.249130000000000074e+00 1.163385000000000069e+01 5.162630000000000052e+00 3.441530000000000200e+00 1.155034999999999989e+01 6.741939999999999600e+00 1.138239999999999919e+00 1.300455000000000005e+01 7.731379999999999697e+00 3.569459999999999855e+00 1.428705000000000069e+01 8.229430000000000689e+00 5.842340000000000089e+00
1.296149999999999913e+01 7.296439999999999593e+00 8.801000000000000489e-02 1.432817000000000007e+01 8.136850000000000804e+00 2.411350000000000104e+00 7.121159999999999712e+00 8.780799999999999272e+00 4.625680000000000014e+00 1.011017999999999972e+01 2.470320000000000071e+00 1.605199999999999960e-01 1.144528000000000034e+01 3.368590000000000195e+00 2.399420000000000108e+00 4.206279999999999575e+00 3.911439999999999806e+00 4.520830000000000126e+00 1.575998000000000054e+01 7.392149999999999999e+00 6.969179999999999708e+00 1.284207999999999927e+01 5.777199999999999669e+00 2.324539999999999829e+00 5.725530000000000008e+00 6.426949999999999719e+00 4.690549999999999997e+00 1.143598000000000070e+01 9.703200000000000713e+00 6.931890000000000107e+00 4.116699999999999804e+00 8.877300000000000191e-01 2.254539999999999988e+00 5.630429999999999602e+00 1.745849999999999902e+00 4.579439999999999955e+00 4.289130000000000109e+00 2.311879999999999935e+00 4.696000000000000174e-02 5.803480000000000416e+00 3.300330000000000208e+00 2.340959999999999930e+00 7.364849999999999675e+00 4.122539999999999871e+00 4.507220000000000226e+00 1.001518000000000086e+01 7.326369999999999827e+00 7.002510000000000012e+00 7.094190000000000218e+00 5.735689999999999955e+00 2.228120000000000100e+00 8.689410000000000522e+00 6.436230000000000118e+00 4.650450000000000195e+00 1.001997000000000071e+01 7.263099999999999667e+00 2.309999999999999901e-02 7.166140000000000398e+00 8.579700000000000104e-01 2.317950000000000177e+00 8.635400000000000631e+00 1.745989999999999931e+00 4.549760000000000026e+00 7.151320000000000121e+00 2.429129999999999789e+00 4.578000000000000125e-02 8.592409999999999215e+00 3.239739999999999842e+00 2.407550000000000079e+00 1.015277999999999992e+01 4.155879999999999797e+00 4.710860000000000269e+00 8.644690000000000651e+00 5.025760000000000005e+00 2.100599999999999967e-01 1.000215000000000032e+01 5.767299999999999649e+00 2.345289999999999875e+00 1.176078000000000046e+01 6.603799999999999670e+00 4.811020000000000074e+00 2.777270000000000127e+00 1.783230000000000093e+00 1.223209999999999908e+00 4.280990000000000073e+00 2.404030000000000111e+00 3.391939999999999955e+00 5.463149999999999729e+00 3.329320000000000057e+00 5.921330000000000204e+00 4.244629999999999903e+00 4.182949999999999946e+00 1.142849999999999921e+00 5.889739999999999753e+00 4.819359999999999644e+00 3.357940000000000147e+00 7.075599999999999667e+00 5.487029999999999852e+00 5.726519999999999833e+00 5.882859999999999978e+00 6.606620000000000381e+00 1.110959999999999948e+00 7.273889999999999745e+00 7.151099999999999568e+00 3.651909999999999989e+00 8.607210000000000250e+00 8.206379999999999342e+00 5.755440000000000111e+00 5.866329999999999600e+00 1.587299999999999933e+00 1.173559999999999937e+00 7.138239999999999696e+00 2.394149999999999778e+00 3.631619999999999848e+00 8.602589999999999293e+00 3.215640000000000054e+00 5.813889999999999780e+00 7.219610000000000305e+00 3.946619999999999795e+00 1.242140000000000022e+00 8.711259999999999337e+00 4.838709999999999845e+00 3.393819999999999837e+00 1.016907999999999923e+01 5.622939999999999827e+00 5.972970000000000113e+00 8.629400000000000404e+00 6.621459999999999901e+00 1.173319999999999919e+00 1.020467999999999975e+01 7.217360000000000220e+00 3.654929999999999790e+00 1.141628000000000043e+01 8.133879999999999555e+00 5.922959999999999781e+00 8.582629999999999981e+00 1.754129999999999967e+00 1.164069999999999938e+00 1.010388000000000019e+01 2.552379999999999871e+00 3.650799999999999823e+00 1.166977999999999938e+01 3.223710000000000075e+00 5.854610000000000092e+00 1.001337000000000010e+01 4.045200000000000351e+00 1.046249999999999902e+00 1.156018000000000079e+01 5.032239999999999824e+00 3.561949999999999950e+00 1.148757999999999946e+01 6.602389999999999759e+00 1.148160000000000069e+00 1.307367999999999952e+01 7.169450000000000323e+00 3.550819999999999865e+00 1.428738000000000063e+01 7.991310000000000358e+00 5.853419999999999845e+00