-4.165534222000000000e+02
-4.201415778599999840e+02
-4.171678748699999915e+02
-4.195187655400000040e+02
-4.175444999399999801e+02
-4.169886996500000009e+02
-4.179775172700000212e+02
-4.173768716199999744e+02
-4.189170752399999742e+02
-4.211662527099999807e+02
-4.163329727000000275e+02
-4.189818051799999807e+02
-4.165082875499999773e+02
-4.175383922299999995e+02
-4.170807346700000267e+02
-4.159196848999999929e+02
-4.168816650300000219e+02
-4.167714400899999987e+02
-4.160403013900000246e+02
-4.163648020800000040e+02
-4.175022063600000024e+02
-4.167875105100000042e+02
-4.202223573699999974e+02
-4.215041511900000160e+02
-4.149885644299999967e+02
-4.188257129099999929e+02
-4.165916892999999845e+02
-4.217875800300000151e+02
-4.181618214299999750e+02
-4.175708321299999852e+02
-4.172758383500000150e+02
-4.164360027500000001e+02
-4.175098211299999775e+02
-4.178419817299999863e+02
-4.184761214499999937e+02
-4.177007543099999793e+02
-4.165767822799999749e+02
-4.158392113500000278e+02
-4.168746417099999917e+02
-4.170949191899999846e+02
-4.171666567999999984e+02
-4.196443673300000228e+02
-4.170493909400000234e+02
-4.177679232799999909e+02
-4.181994736300000000e+02
-4.166260345399999778e+02
-4.198745477800000003e+02
-4.179636376400000017e+02
-4.187756543599999759e+02
-4.162890190900000107e+02
