1.551239999999999952e+00 8.611100000000000421e-01 3.807300000000000129e+00 1.529709999999999903e+00 1.025290000000000035e+00 8.652469999999999217e+00 6.258169999999999789e+00 3.719409999999999883e+00 3.324419999999999931e+00 6.270789999999999864e+00 3.578019999999999978e+00 8.330619999999999692e+00 4.691559999999999953e+00 6.426260000000000083e+00 3.321680000000000188e+00 4.530840000000000423e+00 6.259030000000000094e+00 8.321419999999999817e+00 4.800919999999999632e+00 7.586600000000000010e-01 3.908580000000000165e+00 4.584279999999999688e+00 8.692100000000000382e-01 8.624349999999999739e+00 3.213519999999999932e+00 3.719120000000000203e+00 3.424549999999999983e+00 3.043849999999999945e+00 3.513220000000000010e+00 8.254300000000000637e+00 1.626100000000000101e+00 6.460720000000000240e+00 3.223339999999999872e+00 1.545579999999999954e+00 6.369640000000000413e+00 8.274290000000000589e+00 6.330049999999999955e+00 1.831720000000000015e+00 1.130889999999999951e+00 6.184910000000000352e+00 1.957670000000000021e+00 6.146230000000000082e+00 4.766840000000000188e+00 4.556029999999999802e+00 7.413899999999999935e-01 4.657519999999999882e+00 4.525290000000000035e+00 5.825990000000000002e+00 3.060760000000000147e+00 7.287779999999999703e+00 8.466599999999999682e-01 3.030209999999999848e+00 7.198010000000000019e+00 5.785610000000000142e+00 2.987849999999999895e+00 1.720310000000000006e+00 1.393420000000000103e+00 3.200060000000000127e+00 1.807760000000000034e+00 6.202539999999999942e+00 1.702630000000000088e+00 4.388219999999999565e+00 6.798800000000000399e-01 1.549860000000000015e+00 4.600690000000000168e+00 5.818939999999999557e+00 6.295370000000000132e+00 7.275360000000000049e+00 7.893200000000000216e-01 6.146840000000000082e+00 7.172310000000000407e+00 5.946920000000000428e+00 1.284890000000000088e+00 5.167899999999999716e-01 1.859259999999999913e+00 1.505959999999999965e+00 8.902600000000000513e-01 5.964080000000000048e+00 6.161209999999999631e+00 3.700039999999999996e+00 1.476499999999999924e+00 6.214830000000000076e+00 3.844889999999999919e+00 6.496010000000000062e+00 4.668790000000000440e+00 6.486710000000000420e+00 1.352899999999999991e+00 4.555109999999999992e+00 6.343849999999999767e+00 6.416199999999999903e+00 4.635989999999999611e+00 8.474399999999999711e-01 6.973099999999999854e-01 4.681750000000000078e+00 8.045900000000000274e-01 5.837469999999999715e+00 3.190539999999999932e+00 3.742809999999999970e+00 1.504979999999999984e+00 3.149719999999999853e+00 3.763799999999999812e+00 6.244220000000000326e+00 1.669499999999999984e+00 6.146219999999999573e+00 1.293670000000000098e+00 1.477430000000000021e+00 6.398430000000000284e+00 6.393679999999999808e+00 6.127360000000000362e+00 1.912940000000000085e+00 3.851999999999999869e+00 6.155090000000000394e+00 1.819930000000000048e+00 8.147859999999999658e+00 4.825020000000000309e+00 4.663160000000000416e+00 3.952989999999999782e+00 4.559590000000000032e+00 4.441609999999999836e+00 8.860440000000000538e+00 3.127359999999999918e+00 7.127670000000000172e+00 4.008479999999999599e+00 3.122529999999999806e+00 7.398399999999999643e+00 8.834740000000000038e+00 3.155289999999999928e+00 1.762580000000000036e+00 3.371539999999999981e+00 3.165999999999999925e+00 1.774939999999999962e+00 8.002950000000000230e+00 1.615299999999999958e+00 4.642039999999999722e+00 3.969120000000000203e+00 1.523730000000000029e+00 4.526329999999999742e+00 8.605489999999999640e+00 6.250869999999999926e+00 7.188959999999999795e+00 3.997939999999999827e+00 6.189659999999999940e+00 7.143110000000000070e+00 8.712820000000000675e+00 1.660910000000000108e+00 2.288759999999999906e+00 1.039100000000000024e-01
1.672949999999999937e+00 1.012799999999999923e+00 3.055460000000000065e+00 1.749870000000000037e+00 9.960599999999999454e-01 7.265889999999999738e+00 6.518159999999999954e+00 3.812689999999999912e+00 3.132919999999999927e+00 6.579539999999999722e+00 4.101020000000000110e+00 7.228240000000000443e+00 4.843580000000000219e+00 6.587740000000000151e+00 3.085459999999999869e+00 4.840530000000000221e+00 6.561110000000000220e+00 7.246760000000000090e+00 4.906729999999999592e+00 1.024909999999999988e+00 3.021380000000000177e+00 4.771499999999999631e+00 8.742699999999999916e-01 7.254249999999999865e+00 3.197989999999999888e+00 3.831160000000000121e+00 3.078840000000000021e+00 3.233550000000000146e+00 3.868240000000000123e+00 7.254400000000000404e+00 1.595569999999999933e+00 6.705390000000000406e+00 3.075169999999999959e+00 1.591239999999999988e+00 6.743999999999999773e+00 7.240610000000000213e+00 6.602070000000000327e+00 1.962749999999999995e+00 1.106579999999999897e+00 6.494580000000000020e+00 1.855609999999999982e+00 5.035820000000000185e+00 4.818139999999999645e+00 4.669450000000000323e+00 1.042119999999999935e+00 4.870129999999999626e+00 4.702239999999999753e+00 5.198889999999999567e+00 3.236320000000000086e+00 7.481200000000000294e+00 1.029150000000000009e+00 3.263910000000000089e+00 7.580140000000000100e+00 5.141409999999999592e+00 3.291809999999999903e+00 1.917850000000000055e+00 9.933999999999999497e-01 3.321260000000000101e+00 1.995400000000000063e+00 5.152389999999999581e+00 1.564950000000000063e+00 4.803340000000000387e+00 1.020999999999999908e+00 1.625089999999999923e+00 4.834959999999999702e+00 5.175040000000000084e+00 6.443159999999999776e+00 7.488710000000000200e+00 1.007400000000000073e+00 6.453769999999999563e+00 7.538310000000000066e+00 5.107859999999999623e+00 1.675899999999999945e+00 9.277199999999999891e-01 1.084519999999999929e+00 1.731440000000000090e+00 1.057690000000000019e+00 4.999649999999999928e+00 6.485299999999999621e+00 3.899430000000000174e+00 1.210679999999999978e+00 6.538459999999999717e+00 3.761950000000000127e+00 5.240700000000000358e+00 4.820949999999999847e+00 6.510580000000000034e+00 1.083110000000000017e+00 4.864819999999999922e+00 6.591190000000000104e+00 5.169979999999999798e+00 4.985850000000000115e+00 9.748700000000000143e-01 8.609599999999999476e-01 4.800410000000000288e+00 9.964499999999999469e-01 4.957440000000000069e+00 3.167499999999999982e+00 3.803720000000000212e+00 1.004240000000000022e+00 3.202129999999999921e+00 3.839389999999999858e+00 5.186539999999999928e+00 1.555039999999999978e+00 6.663549999999999862e+00 1.026040000000000063e+00 1.589709999999999956e+00 6.691430000000000433e+00 5.160420000000000229e+00 6.550729999999999720e+00 1.934320000000000039e+00 3.074409999999999865e+00 6.460340000000000416e+00 8.638400000000000523e-01 6.666570000000000107e+00 4.843740000000000379e+00 4.716789999999999594e+00 3.179819999999999869e+00 4.865549999999999820e+00 4.731309999999999683e+00 7.283870000000000289e+00 3.254620000000000068e+00 7.549789999999999779e+00 3.069350000000000023e+00 3.286649999999999849e+00 7.542329999999999757e+00 7.312070000000000292e+00 3.298550000000000093e+00 1.995789999999999953e+00 2.957040000000000113e+00 3.344409999999999883e+00 1.994969999999999910e+00 7.192719999999999558e+00 1.604109999999999925e+00 4.827469999999999928e+00 3.173859999999999904e+00 1.704120000000000079e+00 4.924269999999999925e+00 7.248160000000000380e+00 6.454589999999999606e+00 7.536660000000000359e+00 3.048840000000000217e+00 6.427310000000000301e+00 7.452169999999999739e+00 7.358950000000000102e+00 7.675800000000000400e-01 2.562730000000000175e+00 7.768340000000000245e+00
1.634810000000000096e+00 6.481599999999999584e-01 4.209080000000000155e+00 1.573280000000000012e+00 1.160690000000000000e+00 9.454000000000000625e+00 6.408039999999999736e+00 3.564220000000000166e+00 4.190150000000000041e+00 6.401570000000000427e+00 3.645319999999999894e+00 8.718230000000000146e+00 4.768130000000000202e+00 6.186449999999999783e+00 4.159159999999999968e+00 4.738819999999999588e+00 6.298890000000000100e+00 9.165190000000000836e+00 4.741789999999999949e+00 7.118499999999999828e-01 4.135790000000000077e+00 4.696460000000000079e+00 8.563600000000000101e-01 9.455759999999999721e+00 3.227120000000000211e+00 3.358810000000000073e+00 4.266659999999999897e+00 3.086009999999999920e+00 3.607759999999999856e+00 9.246069999999999567e+00 1.707200000000000051e+00 6.190629999999999633e+00 4.204019999999999868e+00 1.688320000000000043e+00 6.476440000000000197e+00 9.251989999999999270e+00 6.252769999999999939e+00 1.667910000000000004e+00 1.804890000000000105e+00 6.272179999999999644e+00 1.723349999999999937e+00 6.576850000000000307e+00 4.637199999999999989e+00 4.387940000000000396e+00 1.963950000000000085e+00 4.705090000000000217e+00 4.511650000000000382e+00 6.630209999999999937e+00 3.176839999999999886e+00 7.137990000000000279e+00 1.559010000000000007e+00 3.081039999999999779e+00 7.106359999999999566e+00 6.772140000000000271e+00 3.213750000000000107e+00 1.686800000000000077e+00 1.807700000000000085e+00 3.144800000000000040e+00 1.715379999999999905e+00 6.679710000000000036e+00 1.625129999999999963e+00 4.452379999999999782e+00 1.577520000000000033e+00 1.770839999999999970e+00 4.413420000000000343e+00 6.467190000000000438e+00 6.260580000000000034e+00 7.032879999999999576e+00 1.592850000000000099e+00 6.311860000000000248e+00 7.214629999999999654e+00 6.695159999999999556e+00 1.682749999999999968e+00 8.103399999999999492e-01 1.146479999999999944e+00 1.648870000000000058e+00 8.590200000000000058e-01 6.095010000000000261e+00 6.233380000000000365e+00 3.460739999999999927e+00 1.787339999999999929e+00 6.276229999999999976e+00 3.664099999999999913e+00 6.163750000000000284e+00 4.653270000000000017e+00 6.197540000000000049e+00 8.988500000000000378e-01 4.633580000000000254e+00 6.267949999999999910e+00 6.224569999999999936e+00 4.732079999999999842e+00 8.180199999999999694e-01 9.934199999999999697e-01 4.722450000000000259e+00 8.517000000000000126e-01 6.050309999999999633e+00 3.222269999999999968e+00 3.463699999999999779e+00 1.146500000000000075e+00 3.270389999999999908e+00 3.518879999999999786e+00 6.082950000000000301e+00 1.639100000000000001e+00 6.284209999999999852e+00 1.006199999999999983e+00 1.529800000000000049e+00 6.274210000000000065e+00 6.048709999999999809e+00 6.377110000000000056e+00 1.553690000000000015e+00 3.742589999999999861e+00 6.181589999999999918e+00 1.725179999999999936e+00 8.535869999999999180e+00 4.718619999999999592e+00 4.436320000000000263e+00 3.751580000000000137e+00 4.680749999999999744e+00 4.439879999999999605e+00 8.760049999999999670e+00 3.252489999999999881e+00 6.989729999999999777e+00 3.510720000000000063e+00 3.249140000000000139e+00 7.396899999999999586e+00 8.596750000000000114e+00 3.171780000000000044e+00 1.636360000000000037e+00 3.649779999999999802e+00 3.278439999999999799e+00 1.831669999999999909e+00 8.637909999999999755e+00 1.714450000000000029e+00 4.342419999999999725e+00 3.759279999999999955e+00 1.717780000000000085e+00 4.812179999999999680e+00 8.272460000000000591e+00 6.330650000000000333e+00 6.975030000000000285e+00 3.492949999999999999e+00 6.243610000000000326e+00 7.234580000000000233e+00 8.669349999999999667e+00 1.315260000000000096e+00 3.081589999999999829e+00 1.002140999999999948e+01
1.539660000000000029e+00 8.429499999999999771e-01 4.164780000000000371e+00 1.416919999999999957e+00 9.426799999999999624e-01 9.259100000000000108e+00 6.227699999999999569e+00 3.563769999999999882e+00 3.760899999999999910e+00 6.255639999999999645e+00 3.493650000000000144e+00 8.549810000000000798e+00 4.703570000000000029e+00 6.205610000000000070e+00 3.567200000000000149e+00 4.617329999999999934e+00 6.123280000000000278e+00 8.701200000000000045e+00 4.586319999999999730e+00 8.074900000000000411e-01 4.135659999999999670e+00 4.545679999999999943e+00 7.857699999999999685e-01 9.282619999999999649e+00 3.093469999999999942e+00 3.471799999999999997e+00 4.139389999999999681e+00 2.915200000000000014e+00 3.484329999999999927e+00 9.280020000000000380e+00 1.583990000000000009e+00 6.256610000000000227e+00 4.134619999999999962e+00 1.538739999999999997e+00 6.236209999999999809e+00 9.233470000000000510e+00 6.160580000000000389e+00 1.691559999999999953e+00 1.724690000000000056e+00 6.132249999999999979e+00 1.662050000000000027e+00 6.529650000000000176e+00 4.776449999999999640e+00 4.481749999999999901e+00 9.720400000000000151e-01 4.701209999999999667e+00 4.436619999999999564e+00 6.114989999999999704e+00 3.066440000000000055e+00 7.126789999999999736e+00 1.558550000000000102e+00 3.039219999999999811e+00 7.149099999999999788e+00 6.694340000000000401e+00 3.115409999999999791e+00 1.709100000000000064e+00 1.615339999999999998e+00 3.073900000000000077e+00 1.709340000000000082e+00 6.742189999999999905e+00 1.649550000000000072e+00 4.461990000000000123e+00 1.685089999999999977e+00 1.610870000000000024e+00 4.456010000000000026e+00 6.522100000000000009e+00 6.333999999999999631e+00 7.168750000000000178e+00 1.563830000000000053e+00 6.249929999999999986e+00 7.119799999999999685e+00 6.696299999999999919e+00 1.487249999999999961e+00 8.158800000000000496e-01 1.030520000000000103e+00 1.530640000000000001e+00 8.216499999999999915e-01 6.041450000000000209e+00 6.154679999999999929e+00 3.566870000000000207e+00 1.833939999999999904e+00 6.240330000000000155e+00 3.512430000000000163e+00 6.448550000000000004e+00 4.716000000000000192e+00 6.250849999999999795e+00 1.547500000000000098e+00 4.627799999999999692e+00 6.204390000000000072e+00 6.656200000000000117e+00 4.661459999999999937e+00 8.714399999999999924e-01 9.230000000000000426e-01 4.552150000000000141e+00 7.751200000000000312e-01 6.005150000000000432e+00 3.195920000000000094e+00 3.545240000000000169e+00 1.209060000000000024e+00 3.105230000000000157e+00 3.474040000000000017e+00 6.063839999999999897e+00 1.557180000000000009e+00 6.208949999999999747e+00 8.877099999999999991e-01 1.547420000000000018e+00 6.274720000000000297e+00 5.988620000000000054e+00 6.161380000000000301e+00 1.660760000000000014e+00 3.671190000000000175e+00 6.016840000000000188e+00 1.565809999999999924e+00 8.393000000000000682e+00 4.671909999999999563e+00 4.484370000000000189e+00 4.207679999999999865e+00 4.717749999999999666e+00 4.356609999999999872e+00 9.289440000000000808e+00 3.104049999999999976e+00 7.148390000000000022e+00 3.524910000000000210e+00 3.068200000000000038e+00 7.151189999999999714e+00 8.629739999999999966e+00 3.077329999999999899e+00 1.707889999999999908e+00 3.522670000000000190e+00 3.080000000000000071e+00 1.704250000000000043e+00 8.622970000000000468e+00 1.614999999999999991e+00 4.466289999999999871e+00 3.623870000000000147e+00 1.697489999999999943e+00 4.600769999999999804e+00 8.346109999999999474e+00 6.299050000000000260e+00 7.116439999999999877e+00 3.502130000000000187e+00 6.196860000000000035e+00 7.059720000000000439e+00 8.655920000000000059e+00 1.066270000000000051e+00 2.957840000000000025e+00 1.001247000000000043e+01
1.979810000000000070e+00 1.026459999999999928e+00 3.305569999999999897e+00 1.909850000000000048e+00 9.744399999999999729e-01 8.264720000000000510e+00 6.391169999999999796e+00 3.638949999999999907e+00 3.197259999999999991e+00 6.781749999999999723e+00 4.096989999999999910e+00 7.930930000000000035e+00 5.110360000000000014e+00 6.723720000000000141e+00 3.285829999999999806e+00 4.780059999999999754e+00 6.554850000000000065e+00 7.757019999999999804e+00 5.203700000000000436e+00 8.424599999999999866e-01 3.304359999999999964e+00 5.095279999999999809e+00 8.254599999999999715e-01 8.025309999999999278e+00 3.298509999999999831e+00 4.075470000000000148e+00 3.383560000000000123e+00 3.368479999999999919e+00 3.879799999999999915e+00 7.805489999999999817e+00 1.879450000000000065e+00 6.473329999999999806e+00 3.251139999999999919e+00 1.698490000000000055e+00 6.536649999999999849e+00 7.776349999999999874e+00 6.853119999999999656e+00 1.909010000000000096e+00 1.218579999999999997e+00 6.818920000000000314e+00 1.803469999999999906e+00 5.218720000000000248e+00 5.005569999999999631e+00 4.590609999999999857e+00 1.122049999999999992e+00 4.925029999999999575e+00 4.731279999999999930e+00 5.681149999999999700e+00 3.261299999999999866e+00 7.295720000000000205e+00 1.096570000000000045e+00 3.282430000000000181e+00 7.522929999999999673e+00 5.401570000000000427e+00 3.470870000000000122e+00 1.886549999999999949e+00 1.213060000000000027e+00 3.395140000000000047e+00 2.042060000000000208e+00 5.684190000000000076e+00 1.716110000000000024e+00 4.653019999999999712e+00 1.021309999999999940e+00 1.586519999999999930e+00 4.570719999999999672e+00 5.450709999999999944e+00 6.691980000000000040e+00 7.363789999999999836e+00 1.085180000000000033e+00 6.619089999999999918e+00 7.397100000000000009e+00 5.628519999999999968e+00 1.769959999999999978e+00 8.542399999999999993e-01 1.140439999999999898e+00 1.866379999999999928e+00 1.108719999999999928e+00 5.287670000000000314e+00 6.683510000000000062e+00 3.760879999999999779e+00 1.323790000000000022e+00 6.558569999999999567e+00 3.860320000000000196e+00 5.592909999999999826e+00 4.901839999999999975e+00 6.451369999999999827e+00 1.199370000000000047e+00 4.944689999999999586e+00 6.626450000000000173e+00 5.875049999999999883e+00 5.082989999999999675e+00 8.773499999999999632e-01 9.475200000000000289e-01 4.930139999999999745e+00 9.649299999999999544e-01 5.198710000000000164e+00 3.394950000000000134e+00 3.707100000000000062e+00 1.000599999999999934e+00 3.253280000000000172e+00 3.800650000000000084e+00 5.701240000000000308e+00 1.699570000000000025e+00 6.469369999999999621e+00 1.103769999999999918e+00 1.654590000000000005e+00 6.587040000000000006e+00 5.619510000000000005e+00 6.762489999999999668e+00 1.821809999999999929e+00 3.252390000000000114e+00 6.664109999999999978e+00 9.305499999999999883e-01 6.884579999999999700e+00 4.954640000000000377e+00 4.783660000000000245e+00 3.495460000000000012e+00 5.040759999999999685e+00 4.711850000000000094e+00 7.998940000000000161e+00 3.370719999999999938e+00 7.418040000000000411e+00 3.273530000000000051e+00 3.287310000000000176e+00 7.586009999999999920e+00 8.012660000000000338e+00 3.624699999999999811e+00 2.096779999999999866e+00 3.152670000000000083e+00 3.615580000000000016e+00 1.849809999999999954e+00 7.758869999999999933e+00 1.629099999999999993e+00 4.679780000000000051e+00 3.318000000000000060e+00 1.783800000000000052e+00 4.741060000000000052e+00 7.867309999999999803e+00 6.785120000000000040e+00 7.315470000000000361e+00 3.297439999999999927e+00 6.602719999999999700e+00 7.339520000000000266e+00 7.871010000000000062e+00 6.263600000000000279e-01 2.410670000000000091e+00 8.244199999999999307e+00
1.467600000000000016e+00 1.206490000000000062e+00 3.120909999999999851e+00 1.792759999999999909e+00 1.004979999999999984e+00 7.379529999999999923e+00 6.822919999999999874e+00 4.002580000000000027e+00 3.217900000000000205e+00 6.785319999999999574e+00 4.302920000000000300e+00 7.228110000000000035e+00 5.085840000000000138e+00 6.710399999999999920e+00 3.064550000000000107e+00 5.052810000000000024e+00 6.691150000000000375e+00 7.356279999999999930e+00 5.081649999999999778e+00 1.159059999999999979e+00 3.239380000000000148e+00 4.786780000000000257e+00 7.605300000000000393e-01 7.293389999999999596e+00 3.346439999999999859e+00 3.803160000000000096e+00 3.134419999999999984e+00 3.469409999999999883e+00 3.883049999999999891e+00 7.082840000000000025e+00 1.665380000000000082e+00 6.765530000000000044e+00 3.160000000000000142e+00 1.816289999999999960e+00 6.918210000000000193e+00 7.418599999999999639e+00 6.638090000000000046e+00 1.954120000000000079e+00 1.009740000000000082e+00 6.662259999999999849e+00 2.392659999999999787e+00 5.221650000000000347e+00 4.990529999999999688e+00 4.671249999999999680e+00 8.711100000000000509e-01 5.096300000000000274e+00 4.808539999999999814e+00 5.150070000000000370e+00 3.417180000000000106e+00 7.757469999999999644e+00 1.064610000000000056e+00 3.449990000000000112e+00 7.729119999999999990e+00 5.221479999999999677e+00 3.211139999999999883e+00 2.077690000000000037e+00 9.577799999999999647e-01 3.365590000000000082e+00 1.949999999999999956e+00 5.216029999999999944e+00 1.785579999999999945e+00 4.836920000000000108e+00 9.104400000000000270e-01 1.755649999999999933e+00 4.926660000000000039e+00 5.098119999999999763e+00 6.714780000000000193e+00 7.740240000000000009e+00 1.139110000000000067e+00 6.658450000000000202e+00 7.662779999999999703e+00 5.262310000000000265e+00 1.644109999999999960e+00 1.134509999999999907e+00 1.160719999999999974e+00 1.560370000000000035e+00 9.968500000000000139e-01 5.186790000000000234e+00 6.781589999999999563e+00 3.930190000000000072e+00 9.612800000000000233e-01 6.672789999999999999e+00 4.051840000000000330e+00 5.192280000000000229e+00 5.111250000000000071e+00 6.709539999999999615e+00 1.074379999999999891e+00 5.056090000000000195e+00 6.702280000000000015e+00 5.057900000000000063e+00 4.816180000000000128e+00 9.830799999999999539e-01 1.082580000000000098e+00 5.178359999999999630e+00 1.115909999999999958e+00 5.270819999999999617e+00 3.423210000000000086e+00 3.777530000000000054e+00 1.158700000000000063e+00 3.289590000000000014e+00 3.846229999999999816e+00 5.114150000000000418e+00 1.612170000000000103e+00 6.829939999999999678e+00 1.036589999999999900e+00 1.873429999999999929e+00 6.890959999999999752e+00 5.182400000000000340e+00 6.676400000000000112e+00 2.205909999999999815e+00 3.242849999999999788e+00 6.635480000000000267e+00 4.272799999999999931e-01 7.456140000000000434e+00 5.101189999999999891e+00 4.776320000000000121e+00 3.070160000000000000e+00 4.991259999999999586e+00 4.846260000000000012e+00 7.172819999999999752e+00 3.337289999999999868e+00 7.825840000000000352e+00 3.106679999999999886e+00 3.580169999999999852e+00 7.758020000000000138e+00 7.470819999999999794e+00 3.236209999999999809e+00 1.932700000000000085e+00 3.279399999999999871e+00 3.447220000000000173e+00 1.939270000000000049e+00 7.307839999999999669e+00 1.731360000000000010e+00 4.812680000000000291e+00 3.127609999999999779e+00 1.865320000000000089e+00 4.951509999999999856e+00 7.292150000000000354e+00 6.759800000000000253e+00 7.806490000000000151e+00 3.104109999999999925e+00 6.626960000000000406e+00 7.479199999999999626e+00 7.140039999999999942e+00 6.177099999999999813e-01 2.576919999999999877e+00 7.160809999999999675e+00
1.433370000000000033e+00 1.116900000000000004e+00 4.031369999999999898e+00 1.084049999999999958e+00 8.217200000000000060e-01 8.972929999999999851e+00 5.960650000000000226e+00 3.744279999999999831e+00 3.526299999999999990e+00 6.204589999999999606e+00 3.643240000000000034e+00 8.927690000000000126e+00 4.723880000000000301e+00 6.357669999999999710e+00 3.593929999999999847e+00 4.577679999999999971e+00 6.471409999999999663e+00 8.697160000000000224e+00 4.882789999999999964e+00 9.630100000000000326e-01 3.553529999999999855e+00 4.721639999999999837e+00 7.451299999999999590e-01 8.838250000000000384e+00 3.153420000000000112e+00 3.812380000000000102e+00 3.587670000000000137e+00 3.025009999999999977e+00 3.775939999999999852e+00 8.972879999999999967e+00 1.525430000000000064e+00 6.241460000000000008e+00 3.589440000000000186e+00 1.554980000000000029e+00 6.397649999999999615e+00 8.892530000000000712e+00 6.196080000000000254e+00 1.950290000000000079e+00 1.110770000000000035e+00 6.164419999999999789e+00 1.907370000000000010e+00 6.230529999999999902e+00 4.684160000000000323e+00 4.454810000000000159e+00 7.749099999999999877e-01 4.655490000000000350e+00 4.644120000000000026e+00 6.397870000000000168e+00 3.186310000000000198e+00 7.143139999999999823e+00 1.118870000000000031e+00 2.945380000000000109e+00 7.246679999999999566e+00 6.229490000000000194e+00 3.116569999999999840e+00 1.789269999999999916e+00 1.782620000000000093e+00 2.917139999999999844e+00 2.021430000000000060e+00 6.800060000000000215e+00 1.582600000000000007e+00 4.508270000000000444e+00 9.787099999999999689e-01 1.620700000000000029e+00 4.403340000000000032e+00 6.198850000000000193e+00 6.231580000000000119e+00 7.332559999999999967e+00 1.026759999999999895e+00 6.434000000000000163e+00 7.412620000000000431e+00 6.274230000000000196e+00 1.643569999999999975e+00 1.010809999999999986e+00 1.189859999999999918e+00 1.618710000000000093e+00 9.934600000000000097e-01 6.033920000000000172e+00 6.199399999999999800e+00 3.744369999999999976e+00 1.621690000000000076e+00 6.149860000000000326e+00 3.678139999999999965e+00 6.998890000000000278e+00 4.780479999999999841e+00 6.281889999999999752e+00 1.564270000000000049e+00 4.735730000000000217e+00 6.668859999999999566e+00 6.688259999999999650e+00 4.712790000000000035e+00 1.002620000000000067e+00 1.568719999999999892e+00 4.339209999999999567e+00 9.998099999999999765e-01 6.434669999999999668e+00 3.104670000000000041e+00 3.690869999999999873e+00 1.708280000000000021e+00 3.143009999999999859e+00 3.802840000000000220e+00 6.911380000000000301e+00 1.634419999999999984e+00 6.267559999999999576e+00 1.635329999999999950e+00 1.469929999999999959e+00 6.155680000000000263e+00 6.092500000000000249e+00 6.055220000000000269e+00 2.158049999999999802e+00 4.455659999999999954e+00 1.543500000000000094e+00 7.906329999999999636e+00 7.764689999999999870e+00 4.589010000000000034e+00 4.652739999999999654e+00 4.464620000000000033e+00 4.628400000000000070e+00 4.548239999999999839e+00 9.543260000000000076e+00 3.362870000000000026e+00 7.409830000000000361e+00 4.096540000000000070e+00 3.198109999999999786e+00 7.105970000000000120e+00 9.631360000000000809e+00 3.216079999999999828e+00 1.824789999999999912e+00 3.606840000000000046e+00 2.899340000000000028e+00 1.742699999999999916e+00 8.746729999999999450e+00 1.453869999999999996e+00 4.376590000000000202e+00 4.140570000000000306e+00 1.604330000000000034e+00 4.604910000000000281e+00 9.540309999999999846e+00 6.337069999999999759e+00 7.401830000000000354e+00 4.119019999999999904e+00 6.218189999999999884e+00 7.020030000000000214e+00 9.561420000000000030e+00 5.951080000000000148e+00 1.915270000000000028e+00 9.696260000000000545e+00
1.469160000000000021e+00 1.084209999999999896e+00 3.613290000000000113e+00 1.675000000000000044e+00 9.378400000000000070e-01 9.061439999999999273e+00 5.929820000000000313e+00 3.657129999999999992e+00 3.503899999999999793e+00 6.463750000000000107e+00 3.674980000000000135e+00 8.493090000000000472e+00 4.430790000000000006e+00 6.475380000000000358e+00 3.413619999999999877e+00 4.988620000000000054e+00 6.330569999999999808e+00 8.469770000000000465e+00 4.753199999999999648e+00 9.494899999999999451e-01 3.379000000000000004e+00 4.943690000000000140e+00 1.119299999999999962e+00 8.492129999999999512e+00 2.899319999999999897e+00 3.662999999999999812e+00 3.472350000000000048e+00 3.272619999999999862e+00 3.931830000000000158e+00 8.515940000000000509e+00 1.287619999999999987e+00 6.255700000000000038e+00 3.377359999999999918e+00 1.781509999999999927e+00 6.402000000000000135e+00 8.130559999999999121e+00 6.197650000000000325e+00 1.977819999999999911e+00 1.005579999999999918e+00 6.225740000000000052e+00 1.884919999999999929e+00 5.947799999999999976e+00 4.577169999999999739e+00 4.525109999999999744e+00 8.158400000000000096e-01 4.674210000000000420e+00 4.573150000000000048e+00 5.908830000000000027e+00 3.251219999999999999e+00 7.158179999999999765e+00 9.593800000000000106e-01 3.216709999999999958e+00 7.431700000000000195e+00 5.715130000000000265e+00 3.205429999999999779e+00 1.951540000000000052e+00 1.364000000000000101e+00 3.185680000000000067e+00 1.949929999999999941e+00 6.137959999999999638e+00 1.569870000000000099e+00 4.530520000000000103e+00 8.636800000000000033e-01 1.681440000000000046e+00 4.544529999999999959e+00 5.885159999999999947e+00 6.349079999999999835e+00 7.377449999999999619e+00 7.973799999999999777e-01 6.161010000000000097e+00 7.324790000000000134e+00 5.874509999999999899e+00 1.627240000000000020e+00 1.031109999999999971e+00 1.412230000000000096e+00 1.882670000000000066e+00 1.113189999999999902e+00 5.378829999999999778e+00 5.947849999999999859e+00 3.688959999999999795e+00 1.544059999999999988e+00 6.271550000000000402e+00 3.660719999999999974e+00 6.537250000000000227e+00 4.753070000000000128e+00 6.357499999999999929e+00 1.573870000000000102e+00 4.713940000000000019e+00 6.460020000000000095e+00 6.264660000000000117e+00 4.795740000000000336e+00 9.436700000000000088e-01 1.367119999999999891e+00 4.700020000000000309e+00 1.021050000000000013e+00 6.498219999999999885e+00 2.958159999999999901e+00 3.690760000000000041e+00 1.478769999999999918e+00 3.179370000000000029e+00 3.713680000000000092e+00 6.507319999999999993e+00 1.606260000000000021e+00 6.363719999999999821e+00 1.338659999999999961e+00 1.533379999999999965e+00 6.382880000000000109e+00 6.312260000000000204e+00 6.108999999999999986e+00 2.074440000000000062e+00 3.954849999999999977e+00 8.738500000000000156e-01 2.028699999999999948e-01 7.479300000000000281e+00 4.391309999999999825e+00 4.493890000000000384e+00 4.108480000000000132e+00 4.883829999999999671e+00 4.640329999999999622e+00 8.953290000000000859e+00 2.903140000000000054e+00 7.290960000000000107e+00 3.634570000000000078e+00 3.535880000000000134e+00 7.202960000000000029e+00 9.202890000000000015e+00 3.147710000000000008e+00 1.896570000000000089e+00 3.399270000000000014e+00 3.277709999999999901e+00 2.138110000000000177e+00 8.780120000000000147e+00 1.338039999999999896e+00 4.521169999999999689e+00 4.094249999999999723e+00 1.717740000000000045e+00 4.666760000000000019e+00 8.908060000000000755e+00 6.192999999999999616e+00 7.389529999999999710e+00 3.981619999999999937e+00 6.474169999999999980e+00 7.319219999999999615e+00 9.077790000000000248e+00 6.398360000000000269e+00 2.097939999999999916e+00 9.219239999999999213e+00