1.712110000000000021e+00 8.892099999999999449e-01 3.103460000000000107e+00 1.686779999999999946e+00 9.136800000000000477e-01 7.219850000000000101e+00 6.557760000000000034e+00 3.566629999999999967e+00 3.101529999999999898e+00 6.553670000000000329e+00 3.741659999999999986e+00 7.207910000000000039e+00 5.151099999999999568e+00 6.681189999999999962e+00 3.133049999999999891e+00 5.209880000000000067e+00 6.564770000000000216e+00 7.209909999999999819e+00 4.869740000000000180e+00 9.469199999999999839e-01 3.101420000000000066e+00 4.850920000000000343e+00 9.578100000000000502e-01 7.247279999999999944e+00 3.247129999999999850e+00 3.808520000000000127e+00 3.102879999999999860e+00 3.249330000000000052e+00 3.799650000000000194e+00 7.227179999999999715e+00 2.072890000000000121e+00 6.723370000000000068e+00 3.087099999999999955e+00 1.950050000000000061e+00 6.642900000000000027e+00 7.216960000000000264e+00 6.490190000000000126e+00 1.844230000000000036e+00 9.651399999999999979e-01 6.485079999999999956e+00 1.821669999999999900e+00 5.230209999999999582e+00 4.932690000000000019e+00 4.731320000000000192e+00 1.000879999999999992e+00 4.914509999999999934e+00 4.691729999999999734e+00 5.170580000000000176e+00 3.626900000000000013e+00 7.604350000000000165e+00 9.833600000000000119e-01 3.589599999999999902e+00 7.593750000000000000e+00 5.206640000000000157e+00 3.265080000000000204e+00 1.940720000000000001e+00 1.030100000000000016e+00 3.245800000000000018e+00 1.924129999999999896e+00 5.179429999999999978e+00 1.641739999999999977e+00 4.813200000000000145e+00 9.984199999999999742e-01 1.647920000000000051e+00 4.789410000000000167e+00 5.169220000000000148e+00 6.766849999999999810e+00 7.641259999999999941e+00 9.758700000000000152e-01 6.770019999999999705e+00 7.660359999999999836e+00 5.221829999999999750e+00 6.224820000000000242e+00 5.932839999999999669e+00 3.124550000000000161e+00 1.696769999999999889e+00 9.374400000000000510e-01 9.774599999999999955e-01 1.695009999999999906e+00 9.183799999999999741e-01 5.217209999999999681e+00 6.519429999999999836e+00 3.743770000000000042e+00 1.000850000000000017e+00 6.524939999999999962e+00 3.726659999999999862e+00 5.167629999999999946e+00 5.208990000000000009e+00 6.595379999999999576e+00 9.160399999999999654e-01 5.212909999999999933e+00 6.575619999999999798e+00 5.263309999999999711e+00 4.872329999999999828e+00 9.646400000000000530e-01 1.010329999999999950e+00 4.854680000000000106e+00 9.685300000000000020e-01 5.207770000000000010e+00 3.281350000000000211e+00 3.857219999999999871e+00 1.062110000000000110e+00 3.272559999999999913e+00 3.833610000000000184e+00 5.101329999999999920e+00 1.959750000000000103e+00 6.695409999999999862e+00 1.024329999999999963e+00 1.942390000000000061e+00 6.687059999999999782e+00 5.153439999999999799e+00 6.512800000000000367e+00 1.789860000000000007e+00 3.111460000000000115e+00 6.487759999999999749e+00 1.850009999999999932e+00 7.216599999999999682e+00 4.942750000000000199e+00 4.573999999999999844e+00 3.066240000000000077e+00 4.908649999999999736e+00 4.662770000000000081e+00 7.189960000000000129e+00 3.597119999999999873e+00 7.656579999999999941e+00 3.104830000000000201e+00 3.577119999999999855e+00 7.562520000000000131e+00 7.224669999999999703e+00 3.247329999999999828e+00 1.914760000000000018e+00 3.089370000000000172e+00 3.262210000000000054e+00 1.944739999999999913e+00 7.217259999999999565e+00 1.496879999999999988e+00 4.886999999999999567e+00 3.095610000000000195e+00 1.670050000000000034e+00 4.772780000000000022e+00 7.215160000000000018e+00 6.889370000000000438e+00 7.687630000000000408e+00 3.081249999999999822e+00 6.792189999999999728e+00 7.618439999999999657e+00 7.222629999999999661e+00
1.592580000000000107e+00 9.447999999999999732e-01 3.026229999999999976e+00 1.682949999999999946e+00 1.071229999999999905e+00 7.471949999999999648e+00 6.718219999999999636e+00 3.769109999999999960e+00 3.359529999999999905e+00 6.531250000000000000e+00 3.826379999999999892e+00 7.521390000000000242e+00 5.009680000000000355e+00 6.621879999999999988e+00 3.454819999999999780e+00 5.242239999999999789e+00 6.605540000000000411e+00 7.366340000000000110e+00 4.989819999999999922e+00 9.717999999999999972e-01 3.197639999999999816e+00 4.984659999999999869e+00 1.154290000000000038e+00 7.437590000000000146e+00 3.304489999999999927e+00 3.728540000000000187e+00 3.186119999999999841e+00 3.400560000000000027e+00 3.784619999999999873e+00 7.554520000000000124e+00 1.960290000000000088e+00 6.567099999999999937e+00 3.324009999999999909e+00 2.025189999999999824e+00 6.616819999999999702e+00 7.431689999999999685e+00 6.585759999999999614e+00 1.895029999999999992e+00 8.582199999999999829e-01 6.492390000000000327e+00 1.997940000000000049e+00 5.368030000000000079e+00 5.109280000000000044e+00 4.550029999999999575e+00 1.094959999999999933e+00 4.983679999999999666e+00 4.689689999999999692e+00 5.324939999999999785e+00 3.572839999999999794e+00 7.286550000000000082e+00 1.069099999999999939e+00 3.563709999999999933e+00 7.557249999999999801e+00 5.441900000000000404e+00 3.385600000000000165e+00 1.846270000000000078e+00 1.057520000000000016e+00 3.228779999999999983e+00 2.012100000000000222e+00 5.230139999999999567e+00 1.779959999999999987e+00 4.616480000000000139e+00 1.281889999999999974e+00 1.728699999999999903e+00 4.676499999999999879e+00 5.603740000000000165e+00 6.838000000000000078e+00 7.483830000000000204e+00 8.826300000000000257e-01 6.949849999999999639e+00 7.561350000000000016e+00 5.343519999999999825e+00 6.027149999999999785e+00 6.114180000000000170e+00 2.729410000000000114e+00 1.679810000000000025e+00 9.486400000000000388e-01 1.085350000000000037e+00 1.777640000000000109e+00 1.038129999999999997e+00 5.323789999999999800e+00 6.580000000000000071e+00 3.769969999999999821e+00 1.065229999999999899e+00 6.560419999999999696e+00 3.923540000000000028e+00 5.202790000000000248e+00 5.177310000000000301e+00 6.393360000000000376e+00 8.756000000000000449e-01 5.296700000000000408e+00 6.606550000000000367e+00 5.483299999999999841e+00 4.947919999999999874e+00 9.452300000000000146e-01 1.091809999999999947e+00 4.921960000000000335e+00 1.047909999999999897e+00 5.415110000000000312e+00 3.338360000000000216e+00 3.773369999999999891e+00 1.099609999999999976e+00 3.271049999999999791e+00 3.860380000000000145e+00 5.154969999999999608e+00 1.913129999999999997e+00 6.446509999999999962e+00 1.071029999999999927e+00 1.987470000000000070e+00 6.498590000000000089e+00 5.526440000000000019e+00 6.544500000000000206e+00 1.963279999999999914e+00 3.194030000000000147e+00 6.544139999999999624e+00 2.034320000000000128e+00 7.386779999999999902e+00 4.847999999999999865e+00 4.663429999999999964e+00 3.039600000000000080e+00 4.955070000000000086e+00 4.706290000000000084e+00 7.329030000000000378e+00 3.565560000000000063e+00 7.621059999999999945e+00 3.441149999999999931e+00 3.701330000000000009e+00 7.520730000000000359e+00 7.429770000000000429e+00 3.331170000000000186e+00 1.733419999999999961e+00 3.245960000000000178e+00 3.400879999999999903e+00 1.896120000000000028e+00 7.613800000000000345e+00 1.685310000000000086e+00 4.869060000000000166e+00 3.096649999999999903e+00 1.841650000000000009e+00 4.618900000000000006e+00 7.559260000000000090e+00 7.030899999999999928e+00 7.597050000000000303e+00 3.264600000000000168e+00 7.012439999999999785e+00 7.571509999999999962e+00 7.438719999999999999e+00
1.714110000000000023e+00 9.195600000000000440e-01 3.193509999999999849e+00 1.767810000000000104e+00 1.023260000000000058e+00 7.435959999999999681e+00 6.631730000000000125e+00 3.583579999999999988e+00 3.125659999999999883e+00 6.592990000000000350e+00 3.758719999999999839e+00 7.420169999999999710e+00 5.195899999999999963e+00 6.726679999999999993e+00 3.043089999999999851e+00 5.136529999999999596e+00 6.658570000000000100e+00 7.400769999999999627e+00 4.918449999999999989e+00 9.855399999999999716e-01 3.170160000000000089e+00 4.942499999999999893e+00 1.162279999999999980e+00 7.459859999999999935e+00 3.261940000000000062e+00 3.901699999999999946e+00 3.223460000000000214e+00 3.265019999999999811e+00 3.850659999999999972e+00 7.437820000000000320e+00 1.990189999999999904e+00 6.665729999999999933e+00 3.168969999999999843e+00 1.918590000000000018e+00 6.756540000000000212e+00 7.364869999999999806e+00 6.522409999999999819e+00 1.790300000000000002e+00 1.149939999999999962e+00 6.652300000000000324e+00 1.899340000000000028e+00 5.311209999999999987e+00 4.903710000000000235e+00 4.696209999999999773e+00 1.039509999999999934e+00 4.970089999999999897e+00 4.673560000000000159e+00 5.321539999999999715e+00 3.531610000000000138e+00 7.371019999999999683e+00 9.526599999999999513e-01 3.579759999999999831e+00 7.500320000000000320e+00 5.290809999999999569e+00 3.276969999999999938e+00 1.984250000000000069e+00 1.169829999999999925e+00 3.337540000000000173e+00 1.928830000000000044e+00 5.253059999999999619e+00 1.572289999999999965e+00 4.684429999999999872e+00 1.070580000000000087e+00 1.666290000000000049e+00 4.777940000000000076e+00 5.329390000000000072e+00 6.801040000000000418e+00 7.576410000000000089e+00 9.173700000000000188e-01 6.879299999999999748e+00 7.585099999999999731e+00 5.395199999999999996e+00 6.182059999999999889e+00 5.876350000000000406e+00 3.243079999999999963e+00 1.714499999999999913e+00 9.334099999999999620e-01 1.059739999999999904e+00 1.681840000000000002e+00 9.753600000000000048e-01 5.250930000000000319e+00 6.550740000000000229e+00 3.723339999999999872e+00 1.147189999999999932e+00 6.612940000000000040e+00 3.767599999999999838e+00 5.365450000000000053e+00 5.153699999999999726e+00 6.461450000000000138e+00 9.481000000000000538e-01 5.239760000000000417e+00 6.674669999999999881e+00 5.458490000000000286e+00 4.916520000000000223e+00 1.006159999999999943e+00 1.058389999999999942e+00 4.907899999999999707e+00 1.050049999999999928e+00 5.301280000000000214e+00 3.244819999999999816e+00 3.894639999999999880e+00 1.207039999999999891e+00 3.305009999999999781e+00 3.867360000000000131e+00 5.157149999999999679e+00 1.861199999999999966e+00 6.654180000000000206e+00 9.907599999999999740e-01 1.941030000000000033e+00 6.685760000000000147e+00 5.321880000000000166e+00 6.561219999999999608e+00 1.750420000000000087e+00 3.214480000000000004e+00 6.610229999999999606e+00 1.901399999999999979e+00 7.397380000000000067e+00 4.961159999999999570e+00 4.407919999999999838e+00 3.132960000000000189e+00 4.898189999999999600e+00 4.696959999999999802e+00 7.469299999999999606e+00 3.542180000000000106e+00 7.517079999999999984e+00 3.232769999999999921e+00 3.561059999999999892e+00 7.612899999999999778e+00 7.460969999999999658e+00 3.125820000000000043e+00 2.044830000000000148e+00 3.197020000000000195e+00 3.418919999999999959e+00 2.004879999999999995e+00 7.478780000000000427e+00 1.499349999999999961e+00 4.924109999999999765e+00 3.202310000000000212e+00 1.678630000000000067e+00 4.760690000000000310e+00 7.433919999999999639e+00 6.932310000000000194e+00 7.615709999999999980e+00 3.134669999999999845e+00 6.770590000000000330e+00 7.615779999999999994e+00 7.370339999999999669e+00
1.612999999999999989e+00 1.008799999999999919e+00 3.113080000000000069e+00 1.593050000000000077e+00 8.540699999999999958e-01 7.242810000000000414e+00 6.654980000000000118e+00 3.778449999999999864e+00 3.131920000000000037e+00 6.519020000000000259e+00 3.707219999999999960e+00 7.229940000000000033e+00 5.046470000000000233e+00 6.999439999999999884e+00 2.985160000000000036e+00 5.047019999999999840e+00 6.638300000000000090e+00 7.171909999999999563e+00 4.817169999999999952e+00 8.780200000000000227e-01 3.138310000000000155e+00 4.822370000000000267e+00 8.435000000000000275e-01 7.190330000000000332e+00 3.404809999999999892e+00 3.702170000000000183e+00 3.108699999999999797e+00 3.358560000000000212e+00 3.795080000000000009e+00 7.180139999999999745e+00 2.043520000000000003e+00 6.679280000000000328e+00 3.001370000000000093e+00 1.923750000000000071e+00 6.571790000000000020e+00 7.283960000000000434e+00 6.422920000000000407e+00 1.881170000000000009e+00 9.945300000000000251e-01 6.397579999999999600e+00 1.851790000000000047e+00 5.143989999999999618e+00 5.049870000000000303e+00 4.652199999999999669e+00 1.038920000000000066e+00 4.997700000000000031e+00 4.795200000000000351e+00 5.307529999999999859e+00 3.671879999999999811e+00 7.708969999999999878e+00 1.014979999999999993e+00 3.528760000000000119e+00 7.705599999999999561e+00 5.120499999999999829e+00 3.366410000000000124e+00 1.977240000000000109e+00 9.820999999999999730e-01 3.212849999999999984e+00 1.914539999999999909e+00 5.153389999999999915e+00 1.758669999999999956e+00 4.746369999999999756e+00 1.068990000000000107e+00 1.725940000000000030e+00 4.798560000000000159e+00 5.150330000000000297e+00 6.711459999999999759e+00 7.632959999999999745e+00 9.459300000000000486e-01 6.700779999999999959e+00 7.652569999999999872e+00 5.242919999999999803e+00 6.119839999999999947e+00 6.053230000000000111e+00 3.068029999999999813e+00 1.769099999999999895e+00 9.688099999999999490e-01 9.519999999999999574e-01 1.594600000000000017e+00 9.229300000000000281e-01 5.167570000000000441e+00 6.535190000000000055e+00 3.837159999999999904e+00 1.018529999999999935e+00 6.521390000000000242e+00 3.738500000000000156e+00 5.125160000000000160e+00 5.063259999999999650e+00 6.719140000000000335e+00 9.446499999999999897e-01 5.101609999999999978e+00 6.742989999999999817e+00 5.227089999999999570e+00 4.844020000000000437e+00 9.008300000000000196e-01 9.641600000000000170e-01 4.716090000000000337e+00 8.646300000000000097e-01 5.224569999999999936e+00 3.320749999999999869e+00 3.869439999999999991e+00 1.010930000000000106e+00 3.411220000000000141e+00 3.802719999999999878e+00 5.155149999999999899e+00 1.878330000000000055e+00 6.685710000000000264e+00 1.047749999999999959e+00 1.983999999999999986e+00 6.651030000000000442e+00 5.041030000000000122e+00 6.357870000000000132e+00 1.857799999999999896e+00 3.065199999999999925e+00 6.433609999999999829e+00 1.814210000000000100e+00 7.200910000000000366e+00 4.965019999999999989e+00 4.603220000000000312e+00 3.036880000000000024e+00 4.992060000000000386e+00 4.728259999999999685e+00 7.218530000000000335e+00 3.496160000000000156e+00 7.775140000000000384e+00 2.962899999999999867e+00 3.530390000000000139e+00 7.613800000000000345e+00 7.271289999999999587e+00 3.267809999999999881e+00 1.880579999999999918e+00 3.125560000000000116e+00 3.267929999999999779e+00 1.941040000000000099e+00 7.156850000000000378e+00 1.680369999999999919e+00 4.839540000000000397e+00 3.092779999999999863e+00 1.686949999999999950e+00 4.759520000000000195e+00 7.155120000000000147e+00 6.840069999999999872e+00 7.666000000000000369e+00 3.130040000000000155e+00 6.714929999999999843e+00 7.588440000000000296e+00 7.129509999999999792e+00
1.683009999999999895e+00 7.824600000000000444e-01 3.051579999999999959e+00 1.626959999999999962e+00 8.565800000000000081e-01 7.198850000000000193e+00 6.821579999999999977e+00 3.591530000000000111e+00 3.052109999999999879e+00 6.745750000000000135e+00 3.717089999999999783e+00 7.223900000000000432e+00 5.209749999999999659e+00 6.877180000000000071e+00 3.076259999999999994e+00 5.144969999999999821e+00 6.605019999999999669e+00 7.231620000000000381e+00 4.965040000000000120e+00 8.804600000000000204e-01 3.010629999999999917e+00 4.940470000000000361e+00 9.188899999999999846e-01 7.142870000000000275e+00 3.428729999999999833e+00 3.739459999999999784e+00 3.099380000000000024e+00 3.385159999999999947e+00 3.682749999999999968e+00 7.152720000000000411e+00 2.038609999999999811e+00 6.753169999999999895e+00 3.147889999999999855e+00 1.925380000000000091e+00 6.682380000000000209e+00 7.254839999999999733e+00 6.596910000000000274e+00 1.977379999999999916e+00 9.702300000000000368e-01 6.693100000000000271e+00 1.810230000000000006e+00 5.085960000000000036e+00 5.122359999999999580e+00 4.663529999999999731e+00 1.027590000000000003e+00 5.052539999999999587e+00 4.696880000000000166e+00 5.149210000000000065e+00 3.703879999999999839e+00 7.670309999999999739e+00 9.669400000000000217e-01 3.571400000000000130e+00 7.594299999999999606e+00 5.115969999999999906e+00 3.265649999999999942e+00 1.978630000000000111e+00 9.049700000000000522e-01 3.387150000000000105e+00 1.725300000000000056e+00 5.147529999999999717e+00 1.866219999999999990e+00 4.885749999999999815e+00 1.000690000000000079e+00 1.810400000000000009e+00 4.778200000000000003e+00 5.091960000000000264e+00 6.955259999999999998e+00 7.780199999999999783e+00 9.362500000000000266e-01 6.859779999999999767e+00 7.728900000000000325e+00 5.158140000000000391e+00 6.204110000000000014e+00 5.858990000000000364e+00 3.068160000000000220e+00 1.678469999999999906e+00 9.339399999999999924e-01 1.027420000000000000e+00 1.811819999999999986e+00 8.669000000000000039e-01 5.113640000000000185e+00 6.773209999999999731e+00 3.851859999999999840e+00 1.005300000000000082e+00 6.754769999999999719e+00 3.713470000000000049e+00 5.133549999999999613e+00 5.234350000000000058e+00 6.760089999999999932e+00 9.266900000000000137e-01 5.283220000000000027e+00 6.622200000000000308e+00 5.218239999999999768e+00 4.948699999999999655e+00 1.031470000000000109e+00 1.030890000000000084e+00 5.032370000000000232e+00 9.458800000000000541e-01 5.169469999999999565e+00 3.426649999999999974e+00 3.846410000000000107e+00 9.668799999999999617e-01 3.320409999999999862e+00 3.808100000000000041e+00 5.100520000000000387e+00 1.939370000000000038e+00 6.755250000000000199e+00 1.005609999999999893e+00 1.832719999999999905e+00 6.786240000000000272e+00 5.161439999999999806e+00 6.591289999999999871e+00 1.858309999999999906e+00 3.120569999999999844e+00 6.559689999999999799e+00 1.906770000000000076e+00 7.218729999999999869e+00 5.110350000000000392e+00 4.522039999999999615e+00 3.097809999999999953e+00 5.106200000000000294e+00 4.711809999999999832e+00 7.253289999999999793e+00 3.599909999999999943e+00 7.662180000000000213e+00 3.216450000000000031e+00 3.553679999999999950e+00 7.582629999999999981e+00 7.241259999999999586e+00 3.365650000000000031e+00 1.857019999999999893e+00 3.063390000000000057e+00 3.318509999999999849e+00 1.685219999999999940e+00 7.202779999999999738e+00 1.632160000000000055e+00 4.934569999999999901e+00 3.074959999999999916e+00 1.817639999999999922e+00 4.689180000000000348e+00 7.239760000000000417e+00 6.994159999999999933e+00 7.756300000000000416e+00 3.075330000000000119e+00 6.815089999999999648e+00 7.669850000000000279e+00 7.201590000000000380e+00
1.721589999999999954e+00 9.322899999999999521e-01 3.083340000000000192e+00 1.659640000000000004e+00 9.558499999999999774e-01 7.230109999999999815e+00 6.563049999999999606e+00 3.585529999999999884e+00 3.106170000000000098e+00 6.517360000000000042e+00 3.785690000000000222e+00 7.233660000000000423e+00 5.117560000000000109e+00 6.834279999999999688e+00 3.126399999999999846e+00 5.136980000000000324e+00 6.602000000000000313e+00 7.225889999999999702e+00 4.909839999999999982e+00 9.519699999999999829e-01 3.092859999999999943e+00 4.899499999999999744e+00 9.460399999999999920e-01 7.216549999999999798e+00 3.233400000000000052e+00 3.751290000000000013e+00 3.087470000000000159e+00 3.264339999999999797e+00 3.769089999999999829e+00 7.210740000000000371e+00 2.053949999999999942e+00 6.634179999999999744e+00 3.114980000000000082e+00 1.899920000000000053e+00 6.607380000000000031e+00 7.225640000000000285e+00 6.503199999999999648e+00 1.864999999999999991e+00 9.952900000000000080e-01 6.517669999999999852e+00 1.871550000000000047e+00 5.196180000000000021e+00 4.900640000000000107e+00 4.717810000000000059e+00 1.035460000000000047e+00 4.915709999999999802e+00 4.725189999999999557e+00 5.192619999999999791e+00 3.542460000000000164e+00 7.606609999999999872e+00 9.811299999999999466e-01 3.556389999999999940e+00 7.610549999999999926e+00 5.211249999999999716e+00 3.276650000000000063e+00 1.907299999999999995e+00 1.022329999999999961e+00 3.285759999999999792e+00 1.898030000000000106e+00 5.154829999999999579e+00 1.647540000000000004e+00 4.758510000000000240e+00 1.032210000000000072e+00 1.644980000000000109e+00 4.755519999999999747e+00 5.174590000000000245e+00 6.766350000000000087e+00 7.613719999999999821e+00 9.588999999999999746e-01 6.773900000000000254e+00 7.614370000000000083e+00 5.232879999999999754e+00 6.222870000000000346e+00 5.900830000000000020e+00 3.112359999999999793e+00 1.676209999999999978e+00 9.382000000000000339e-01 1.002439999999999998e+00 1.685540000000000038e+00 9.441699999999999537e-01 5.183559999999999945e+00 6.502159999999999940e+00 3.752619999999999845e+00 1.025209999999999955e+00 6.513359999999999594e+00 3.761960000000000193e+00 5.165219999999999700e+00 5.158929999999999794e+00 6.600660000000000416e+00 9.503399999999999626e-01 5.150820000000000398e+00 6.595589999999999620e+00 5.236819999999999808e+00 4.895870000000000388e+00 9.366700000000000026e-01 9.862999999999999545e-01 4.909189999999999721e+00 9.417200000000000015e-01 5.169100000000000250e+00 3.276279999999999859e+00 3.786020000000000163e+00 1.066370000000000040e+00 3.253120000000000012e+00 3.817260000000000097e+00 5.151589999999999669e+00 1.897759999999999891e+00 6.640430000000000277e+00 1.012240000000000029e+00 1.919859999999999900e+00 6.617600000000000371e+00 5.160549999999999748e+00 6.543210000000000193e+00 1.824840000000000018e+00 3.080820000000000114e+00 6.503079999999999750e+00 1.916109999999999980e+00 7.232339999999999769e+00 4.945490000000000386e+00 4.522070000000000256e+00 3.099660000000000082e+00 4.889960000000000306e+00 4.734609999999999985e+00 7.233749999999999680e+00 3.543229999999999880e+00 7.643279999999999852e+00 3.121430000000000149e+00 3.514269999999999783e+00 7.623109999999999609e+00 7.231020000000000003e+00 3.288860000000000117e+00 1.895979999999999999e+00 3.098590000000000177e+00 3.281600000000000072e+00 1.914760000000000018e+00 7.219960000000000377e+00 1.558340000000000058e+00 4.815699999999999648e+00 3.082570000000000032e+00 1.666819999999999968e+00 4.760239999999999583e+00 7.233760000000000190e+00 6.940229999999999677e+00 7.671160000000000423e+00 3.111979999999999968e+00 6.748719999999999608e+00 7.598230000000000040e+00 7.220959999999999823e+00
1.709559999999999969e+00 9.197499999999999565e-01 3.109459999999999891e+00 1.711119999999999974e+00 9.815899999999999626e-01 7.218899999999999650e+00 6.487099999999999866e+00 3.579899999999999860e+00 3.103429999999999911e+00 6.489270000000000316e+00 3.764909999999999979e+00 7.202969999999999651e+00 5.104049999999999976e+00 6.586100000000000065e+00 3.032820000000000071e+00 5.170490000000000030e+00 6.603930000000000078e+00 7.230470000000000397e+00 4.843799999999999883e+00 9.895699999999999497e-01 3.093620000000000037e+00 4.857370000000000410e+00 1.014450000000000074e+00 7.229420000000000179e+00 3.161960000000000104e+00 3.850950000000000095e+00 3.094100000000000072e+00 3.213499999999999801e+00 3.836030000000000051e+00 7.206999999999999851e+00 2.061440000000000161e+00 6.736950000000000216e+00 3.096020000000000216e+00 1.967389999999999972e+00 6.685319999999999929e+00 7.208890000000000242e+00 6.492180000000000284e+00 1.848039999999999905e+00 9.951900000000000190e-01 6.499530000000000030e+00 1.869340000000000002e+00 5.209159999999999791e+00 4.837530000000000108e+00 4.705049999999999955e+00 1.000080000000000080e+00 4.854269999999999641e+00 4.751280000000000392e+00 5.186930000000000263e+00 3.579959999999999809e+00 7.583890000000000242e+00 9.530199999999999783e-01 3.577139999999999986e+00 7.624749999999999694e+00 5.181910000000000238e+00 3.230999999999999872e+00 1.953040000000000109e+00 1.005560000000000009e+00 3.273120000000000029e+00 1.982679999999999998e+00 5.190279999999999561e+00 1.596819999999999906e+00 4.782720000000000304e+00 9.965000000000000524e-01 1.618470000000000075e+00 4.806689999999999685e+00 5.168470000000000120e+00 6.724549999999999805e+00 7.636219999999999786e+00 9.866200000000000525e-01 6.704139999999999766e+00 7.668680000000000163e+00 5.165049999999999919e+00 6.248499999999999943e+00 5.935789999999999900e+00 3.092490000000000183e+00 1.688029999999999919e+00 9.036300000000000443e-01 9.949000000000000066e-01 1.721770000000000023e+00 9.708900000000000308e-01 5.137229999999999741e+00 6.447320000000000384e+00 3.733820000000000139e+00 1.014489999999999892e+00 6.479429999999999801e+00 3.757449999999999957e+00 5.141879999999999562e+00 5.175989999999999647e+00 6.578899999999999970e+00 9.317100000000000382e-01 5.180640000000000356e+00 6.578420000000000378e+00 5.298910000000000231e+00 4.828990000000000116e+00 9.662300000000000333e-01 1.041600000000000081e+00 4.848270000000000302e+00 1.000140000000000029e+00 5.199499999999999567e+00 3.189410000000000078e+00 3.856949999999999878e+00 1.003339999999999899e+00 3.231349999999999945e+00 3.869790000000000063e+00 5.173569999999999780e+00 1.954490000000000061e+00 6.660269999999999690e+00 1.024639999999999995e+00 1.959140000000000104e+00 6.697009999999999685e+00 5.159729999999999706e+00 6.476849999999999774e+00 1.803639999999999910e+00 3.095920000000000005e+00 6.486559999999999881e+00 1.899080000000000101e+00 7.207970000000000432e+00 4.835469999999999935e+00 4.617779999999999774e+00 3.094269999999999854e+00 4.867810000000000414e+00 4.706529999999999880e+00 7.225970000000000226e+00 3.595200000000000173e+00 7.632290000000000241e+00 3.088880000000000070e+00 3.588299999999999823e+00 7.605780000000000207e+00 7.195380000000000109e+00 3.249919999999999920e+00 1.984059999999999935e+00 3.085240000000000204e+00 3.264730000000000132e+00 1.972359999999999891e+00 7.221280000000000143e+00 1.513190000000000035e+00 4.873359999999999914e+00 3.079860000000000042e+00 1.622179999999999955e+00 4.831199999999999939e+00 7.203789999999999694e+00 6.881079999999999863e+00 7.682010000000000005e+00 3.108919999999999906e+00 6.753040000000000376e+00 7.648320000000000007e+00 7.213059999999999583e+00
1.663729999999999931e+00 8.065499999999999892e-01 4.155280000000000307e+00 1.469759999999999955e+00 9.488900000000000112e-01 9.020699999999999719e+00 6.394989999999999952e+00 3.565980000000000150e+00 4.097570000000000157e+00 6.356379999999999697e+00 3.551229999999999887e+00 9.192619999999999791e+00 4.610409999999999897e+00 6.062170000000000059e+00 3.328050000000000175e+00 4.697189999999999976e+00 6.323559999999999626e+00 9.221479999999999677e+00 4.699349999999999916e+00 9.128699999999999593e-01 4.140839999999999854e+00 4.639050000000000118e+00 1.033169999999999922e+00 9.063909999999999911e+00 3.167409999999999837e+00 3.560760000000000147e+00 4.281550000000000189e+00 3.018850000000000033e+00 3.612940000000000040e+00 9.059269999999999712e+00 1.566370000000000040e+00 6.335729999999999862e+00 4.192079999999999806e+00 1.567080000000000028e+00 6.155949999999999811e+00 9.125669999999999504e+00 6.411839999999999762e+00 1.790699999999999958e+00 1.729899999999999993e+00 6.262439999999999785e+00 1.861120000000000108e+00 6.487700000000000244e+00 4.766359999999999708e+00 4.297670000000000101e+00 1.474059999999999926e+00 4.620079999999999742e+00 4.391429999999999723e+00 6.730209999999999582e+00 3.235720000000000152e+00 7.101770000000000138e+00 1.559039999999999981e+00 3.163339999999999819e+00 7.046269999999999811e+00 6.716540000000000177e+00 3.188930000000000042e+00 1.680469999999999908e+00 1.519579999999999931e+00 2.916809999999999903e+00 1.833990000000000009e+00 6.566589999999999705e+00 1.688730000000000064e+00 4.411310000000000286e+00 1.580330000000000013e+00 1.294000000000000039e+00 4.549419999999999575e+00 6.382959999999999745e+00 6.408619999999999983e+00 7.106530000000000236e+00 1.659559999999999924e+00 6.368719999999999715e+00 7.146490000000000009e+00 6.711149999999999949e+00 4.878930000000000433e+00 6.186060000000000336e+00 4.683900000000000396e+00 1.707089999999999996e+00 7.723200000000000065e-01 1.040960000000000107e+00 1.659540000000000015e+00 7.150999999999999579e-01 6.014149999999999885e+00 6.498579999999999579e+00 3.546800000000000175e+00 1.096230000000000038e+00 6.071900000000000297e+00 3.673369999999999802e+00 5.912200000000000344e+00 4.719719999999999693e+00 6.162320000000000242e+00 1.107529999999999903e+00 4.821790000000000020e+00 6.160969999999999835e+00 6.439499999999999780e+00 4.755060000000000286e+00 9.180700000000000527e-01 1.047050000000000036e+00 4.599280000000000257e+00 9.560699999999999754e-01 6.181790000000000340e+00 3.108049999999999979e+00 3.564160000000000217e+00 1.012550000000000061e+00 3.014860000000000095e+00 3.723790000000000155e+00 5.948760000000000048e+00 1.691769999999999996e+00 6.284779999999999589e+00 1.133110000000000062e+00 1.459699999999999998e+00 6.425670000000000215e+00 6.037349999999999994e+00 6.333669999999999689e+00 1.681370000000000031e+00 3.712709999999999955e+00 6.302819999999999645e+00 1.874100000000000099e+00 8.344620000000000815e+00 4.766589999999999883e+00 4.149700000000000166e+00 3.560010000000000119e+00 4.639300000000000423e+00 4.306160000000000210e+00 8.710599999999999454e+00 3.013959999999999972e+00 7.075759999999999827e+00 3.492309999999999803e+00 3.127450000000000063e+00 7.122840000000000060e+00 8.547439999999999927e+00 3.103660000000000085e+00 1.811169999999999947e+00 3.584099999999999842e+00 2.980059999999999931e+00 1.802499999999999991e+00 8.514099999999999113e+00 1.572920000000000096e+00 4.495049999999999990e+00 3.638510000000000133e+00 1.433389999999999942e+00 4.425670000000000215e+00 8.506360000000000809e+00 6.131380000000000052e+00 7.219149999999999956e+00 3.462790000000000035e+00 6.299579999999999735e+00 7.197339999999999627e+00 8.639760000000000773e+00