-3.923316436900000213e+02
-3.867275834899999722e+02
-3.895873129700000277e+02
-3.894943936299999905e+02
-3.901637833999999998e+02
-3.925557219500000201e+02
-3.919673548700000083e+02
-3.915145793400000116e+02
-3.892460657099999821e+02
-3.923767082800000026e+02
-3.885957646699999941e+02
-3.890869651099999942e+02
-3.892341238299999873e+02
-3.922655040600000120e+02
-3.865089441999999735e+02
-3.919804501400000163e+02
-3.922055848699999956e+02
-3.882946561699999961e+02
-3.922661378199999831e+02
-3.926590084800000113e+02
-3.894501012399999809e+02
-3.886224606700000095e+02
-3.855802424099999826e+02
-3.926013735600000132e+02
-3.920865985899999941e+02
-3.901588524800000073e+02
-3.920865985899999941e+02
-3.925854635800000096e+02
-3.895009868700000197e+02
-3.922869567000000188e+02
-3.882862797399999977e+02
-3.925249953200000164e+02
-3.876493353600000091e+02
-3.852886740800000211e+02
-3.860096098899999788e+02
-3.891403908099999853e+02
-3.898069363800000247e+02
-3.883472347900000159e+02
-3.885894300300000168e+02
-3.920865985899999941e+02
-3.898217811999999753e+02
-3.849072272600000133e+02
-3.937885091399999737e+02
-3.923301232599999935e+02
-3.889124671000000149e+02
-3.924742141300000071e+02
-3.893686675100000230e+02
-3.857820281099999988e+02
-3.896294471799999997e+02
-3.858687288200000012e+02
