1.419910000000000005e+00 8.727700000000000458e-01 7.197000000000000064e-01 3.031600000000000072e+00 2.029860000000000220e+00 3.360749999999999904e+00 4.411909999999999776e+00 3.062660000000000160e+00 5.828280000000000349e+00 3.096999999999999975e+00 3.683780000000000054e+00 6.497100000000000097e-01 4.520730000000000359e+00 4.856969999999999565e+00 3.161459999999999937e+00 4.300000000000000003e-03 5.764619999999999855e+00 5.722000000000000419e+00 3.841499999999999915e+00 6.783800000000000274e+00 6.465800000000000436e-01 1.170999999999999958e-01 7.501549999999999940e+00 3.125220000000000109e+00 1.516790000000000083e+00 8.473250000000000171e+00 5.568920000000000314e+00 4.525109999999999744e+00 1.166439999999999921e+00 6.794700000000000184e-01 -8.891999999999999904e-02 2.024220000000000130e+00 3.111040000000000028e+00 1.333290000000000086e+00 3.057139999999999969e+00 5.731889999999999930e+00 1.263600000000000001e-01 3.688930000000000042e+00 6.685200000000000031e-01 1.537409999999999943e+00 4.595780000000000420e+00 3.247959999999999958e+00 3.042129999999999779e+00 5.845959999999999823e+00 5.600889999999999702e+00 2.274880000000000013e+00 6.780640000000000001e+00 7.157400000000000428e-01 2.978629999999999889e+00 7.475240000000000329e+00 3.076839999999999797e+00 -1.327700000000000102e+00 8.627729999999999677e+00 5.247410000000000352e+00 5.994200000000000195e+00 5.657000000000000223e-02 1.321700000000000097e-01 1.410299999999999887e-01 9.270049999999999457e+00 2.660649999999999959e+00 1.578969999999999985e+00 1.039574999999999960e+01 5.123660000000000103e+00 1.580319999999999947e+00 2.711759999999999948e+00 7.424000000000000044e-02 3.078450000000000131e+00 3.758189999999999920e+00 2.548550000000000093e+00 -1.476469999999999949e+00 4.766829999999999679e+00 5.057769999999999655e+00 1.432630000000000070e+00 8.458109999999999573e+00 7.361220000000000319e+00 4.431720000000000326e+00 6.652269999999999683e+00 2.626780000000000115e+00 -3.660999999999999671e-02 7.432830000000000048e+00 4.932970000000000077e+00 1.428209999999999980e+00 3.210370000000000168e+00 7.510769999999999946e+00 3.119839999999999947e+00 9.347400000000000375e+00 2.576029999999999820e+00 -1.143200000000000049e-01 2.122660000000000213e+00 5.041570000000000107e+00 2.959810000000000052e+00 6.053449999999999775e+00 7.439750000000000085e+00 -8.420000000000000401e-03 3.759710000000000107e+00 2.420539999999999914e+00 1.459000000000000075e+00 4.773189999999999600e+00 5.068430000000000213e+00 1.489810000000000079e+00 6.425019999999999953e+00 2.383370000000000211e+00 3.025970000000000049e+00 7.577259999999999884e+00 4.967439999999999856e+00
1.554210000000000091e+00 7.429599999999999538e-01 6.715700000000000003e-01 3.138900000000000023e+00 1.816859999999999919e+00 3.232340000000000213e+00 4.949650000000000105e+00 2.437190000000000190e+00 5.896889999999999965e+00 3.028119999999999923e+00 3.466089999999999893e+00 6.995599999999999596e-01 4.595589999999999620e+00 4.772610000000000241e+00 3.185160000000000213e+00 1.709900000000000031e-01 5.327679999999999971e+00 5.779910000000000103e+00 3.738910000000000178e+00 6.746410000000000018e+00 8.109100000000000197e-01 -1.819699999999999929e-01 7.249819999999999709e+00 3.304419999999999913e+00 1.277120000000000033e+00 7.876570000000000071e+00 5.883980000000000210e+00 4.602199999999999847e+00 9.697999999999999954e-01 4.999000000000000110e-01 -2.140999999999999848e-02 1.636039999999999939e+00 3.160200000000000120e+00 1.623320000000000096e+00 2.520210000000000061e+00 5.823220000000000063e+00 9.200999999999999457e-02 3.337969999999999882e+00 8.179400000000000004e-01 1.549360000000000070e+00 4.481740000000000279e+00 3.394130000000000091e+00 3.220920000000000005e+00 5.103919999999999568e+00 5.769650000000000389e+00 1.939219999999999944e+00 6.550360000000000404e+00 7.934499999999999886e-01 2.951360000000000205e+00 7.469030000000000058e+00 3.345009999999999817e+00 -1.741300000000000070e+00 8.067729999999999180e+00 5.853299999999999947e+00 4.778039999999999843e+00 2.530899999999999928e+00 7.763320000000000221e+00 1.588789999999999925e+00 8.699500000000000011e-01 2.647060000000000191e+00 1.389100000000000001e+00 9.818149999999999267e+00 5.124679999999999680e+00 7.352999999999999814e-02 5.152860000000000440e+00 7.741249999999999964e+00 3.074539999999999829e+00 3.661620000000000097e+00 2.595320000000000071e+00 -1.487030000000000074e+00 4.321609999999999729e+00 5.136980000000000324e+00 1.546640000000000015e+00 7.758429999999999715e+00 7.733369999999999855e+00 4.390869999999999607e+00 6.630700000000000038e+00 2.695590000000000153e+00 -2.008699999999999930e-01 7.004520000000000302e+00 5.313889999999999780e+00 1.761949999999999905e+00 2.477759999999999962e+00 7.604300000000000281e+00 4.629089999999999705e+00 8.567799999999999860e-01 2.491569999999999840e+00 -1.796990000000000087e+00 9.769349999999999312e+00 5.198100000000000165e+00 3.279539999999999900e+00 5.182979999999999698e+00 7.725869999999999571e+00 -1.164499999999999980e-01 3.745060000000000056e+00 2.667800000000000171e+00 1.559379999999999988e+00 4.284939999999999749e+00 5.235360000000000014e+00 1.527630000000000043e+00 6.462880000000000180e+00 2.795479999999999965e+00 2.764470000000000205e+00 7.196049999999999613e+00 5.329799999999999649e+00
1.544059999999999988e+00 8.000599999999999934e-01 6.511099999999999666e-01 2.788359999999999950e+00 1.924770000000000092e+00 3.302119999999999944e+00 4.473550000000000360e+00 2.909450000000000092e+00 5.722109999999999808e+00 3.264569999999999972e+00 3.559899999999999842e+00 7.905100000000000460e-01 4.465460000000000207e+00 4.558950000000000280e+00 3.203679999999999861e+00 -2.296499999999999930e-01 5.438559999999999839e+00 5.943270000000000053e+00 3.745569999999999844e+00 6.554039999999999644e+00 8.097900000000000098e-01 -1.725800000000000112e-01 7.137780000000000236e+00 3.174549999999999983e+00 1.092819999999999903e+00 8.207319999999999283e+00 5.889780000000000015e+00 4.673980000000000246e+00 9.680699999999999861e-01 7.087900000000000311e-01 -2.236700000000000077e-01 1.894900000000000029e+00 3.235160000000000036e+00 1.538759999999999906e+00 2.847420000000000062e+00 5.851390000000000313e+00 4.966000000000000275e-02 3.663910000000000000e+00 6.485100000000000309e-01 1.448039999999999994e+00 4.688839999999999897e+00 3.329180000000000028e+00 2.996280000000000054e+00 5.655640000000000001e+00 5.944840000000000124e+00 1.984019999999999895e+00 6.440859999999999808e+00 7.183199999999999585e-01 2.917809999999999793e+00 7.096980000000000288e+00 3.466050000000000075e+00 -1.923829999999999929e+00 8.392139999999999489e+00 5.628160000000000274e+00 4.343079999999999607e+00 2.854670000000000041e+00 7.696060000000000123e+00 -1.404600000000000015e-01 9.079769999999999897e+00 2.655530000000000168e+00 2.989710000000000090e+00 1.897040000000000060e+00 5.112599999999999589e+00 1.664160000000000084e+00 2.486819999999999808e+00 7.972999999999999532e-02 3.000309999999999810e+00 3.578180000000000138e+00 2.584210000000000118e+00 4.356779999999999653e+00 4.719020000000000437e+00 5.117910000000000181e+00 1.233209999999999917e+00 8.017849999999999255e+00 7.660879999999999690e+00 4.434459999999999624e+00 6.439479999999999649e+00 2.721890000000000143e+00 -2.886000000000000232e-01 7.206319999999999837e+00 5.306899999999999729e+00 1.503370000000000095e+00 2.853320000000000078e+00 7.713210000000000122e+00 4.583090000000000330e+00 1.008059999999999956e+00 2.539779999999999927e+00 -2.501300000000000190e-01 2.003719999999999946e+00 5.131020000000000358e+00 2.962530000000000108e+00 5.547139999999999738e+00 7.639420000000000321e+00 2.913999999999999924e-02 3.658830000000000027e+00 2.648239999999999927e+00 1.433710000000000040e+00 4.620730000000000004e+00 5.271679999999999922e+00 1.493559999999999999e+00 6.357339999999999769e+00 2.487979999999999858e+00 2.722150000000000070e+00 7.380690000000000417e+00 5.298799999999999955e+00
1.512820000000000054e+00 9.284999999999999920e-01 6.991300000000000292e-01 2.935509999999999842e+00 2.082500000000000018e+00 3.300769999999999982e+00 4.770640000000000214e+00 3.093999999999999861e+00 5.699010000000000353e+00 2.959789999999999921e+00 3.558370000000000033e+00 6.263600000000000279e-01 4.496979999999999755e+00 4.688500000000000334e+00 3.113760000000000083e+00 -2.724000000000000032e-02 5.749249999999999972e+00 5.668269999999999698e+00 3.890000000000000124e+00 6.497320000000000206e+00 7.408700000000000285e-01 -1.175900000000000001e-01 7.323979999999999713e+00 3.210550000000000015e+00 1.643620000000000081e+00 8.348649999999999238e+00 5.516670000000000407e+00 4.631730000000000125e+00 9.088600000000000012e-01 6.675299999999999567e-01 3.713999999999999940e-02 2.068569999999999798e+00 3.088119999999999976e+00 1.610119999999999996e+00 2.896850000000000147e+00 5.852389999999999759e+00 3.402999999999999775e-02 3.620350000000000179e+00 8.004700000000000149e-01 1.527139999999999942e+00 4.830289999999999750e+00 3.290020000000000167e+00 3.159180000000000099e+00 5.760469999999999757e+00 5.765380000000000393e+00 1.819379999999999997e+00 6.443349999999999689e+00 8.847000000000000419e-01 3.163180000000000103e+00 7.416179999999999772e+00 3.113049999999999873e+00 -1.601159999999999917e+00 8.552049999999999486e+00 5.733209999999999695e+00 4.567109999999999559e+00 3.100519999999999943e+00 7.557089999999999641e+00 1.576570000000000027e+00 1.101620000000000044e+00 2.477030000000000065e+00 3.199190000000000200e+00 2.082770000000000010e+00 5.191419999999999924e+00 -6.559999999999999859e-03 5.622130000000000294e+00 7.565929999999999822e+00 2.875999999999999890e+00 3.732699999999999907e+00 2.411610000000000031e+00 4.514319999999999666e+00 4.791439999999999699e+00 4.981659999999999755e+00 2.912090000000000067e+00 5.263309999999999711e+00 1.545999999999999978e-02 4.526440000000000019e+00 6.380799999999999805e+00 2.504690000000000083e+00 -9.220000000000000417e-02 7.675069999999999837e+00 5.052690000000000126e+00 1.737139999999999906e+00 3.084150000000000169e+00 7.645150000000000112e+00 3.053100000000000147e+00 9.235839999999999606e+00 2.634100000000000108e+00 -1.455659999999999954e+00 1.018402999999999992e+01 5.244760000000000311e+00 4.627489999999999881e+00 2.801759999999999806e+00 1.181299999999999989e-01 4.821000000000000285e-02 3.875210000000000043e+00 2.589090000000000114e+00 1.491449999999999942e+00 4.689879999999999605e+00 5.190909999999999691e+00 1.626749999999999918e+00 6.560859999999999914e+00 2.604150000000000187e+00 3.249369999999999870e+00 7.449650000000000105e+00 5.006240000000000023e+00
1.462709999999999955e+00 9.594000000000000306e-01 6.900500000000000522e-01 2.936389999999999834e+00 1.950620000000000021e+00 3.159209999999999852e+00 4.603449999999999598e+00 2.979569999999999830e+00 5.644050000000000011e+00 2.907840000000000202e+00 3.565189999999999859e+00 5.738900000000000112e-01 4.555509999999999948e+00 4.700669999999999682e+00 3.100579999999999892e+00 1.400999999999999988e-02 5.655739999999999768e+00 5.608929999999999971e+00 3.783150000000000013e+00 6.496000000000000441e+00 7.591099999999999515e-01 -7.754999999999999394e-02 7.408559999999999590e+00 2.910629999999999828e+00 1.478280000000000038e+00 8.299469999999999459e+00 5.515729999999999578e+00 4.568179999999999907e+00 1.003460000000000019e+00 6.482099999999999529e-01 -1.096000000000000030e-01 1.960990000000000011e+00 3.151860000000000106e+00 1.552710000000000035e+00 2.996459999999999901e+00 5.614840000000000053e+00 -1.504199999999999982e-01 3.709779999999999855e+00 6.301200000000000134e-01 1.416050000000000031e+00 4.661010000000000097e+00 3.121659999999999879e+00 3.155829999999999913e+00 5.633650000000000269e+00 5.609370000000000189e+00 2.177919999999999856e+00 6.520529999999999937e+00 7.662999999999999812e-01 2.998170000000000002e+00 7.284790000000000099e+00 3.207040000000000113e+00 -1.539449999999999985e+00 8.346410000000000551e+00 5.668709999999999916e+00 4.350679999999999659e+00 8.060829999999999274e+00 6.980000000000000093e-03 -2.841500000000000137e-01 9.128190000000000026e+00 2.534130000000000216e+00 1.439200000000000035e+00 1.006085000000000029e+01 5.058650000000000091e+00 1.346340000000000092e+00 2.725439999999999863e+00 2.248999999999999957e-02 2.970880000000000187e+00 3.725630000000000219e+00 2.502060000000000173e+00 -1.439789999999999903e+00 4.792740000000000222e+00 4.957189999999999763e+00 1.341120000000000090e+00 8.220929999999999183e+00 7.311569999999999681e+00 4.438629999999999853e+00 6.458849999999999980e+00 2.460850000000000204e+00 -9.658999999999999531e-02 7.459030000000000271e+00 4.940809999999999924e+00 1.407000000000000028e+00 3.222259999999999902e+00 7.419039999999999857e+00 2.802970000000000184e+00 9.134980000000000544e+00 2.544119999999999937e+00 -1.651720000000000077e+00 1.011969000000000030e+01 5.067230000000000345e+00 2.921349999999999891e+00 5.902529999999999610e+00 7.393089999999999939e+00 -1.088100000000000039e-01 3.771069999999999922e+00 2.458839999999999915e+00 1.593790000000000040e+00 4.744659999999999656e+00 4.944440000000000168e+00 1.488539999999999974e+00 6.448620000000000019e+00 2.462889999999999802e+00 3.120899999999999785e+00 7.376450000000000173e+00 5.075789999999999580e+00
1.449119999999999964e+00 9.460699999999999665e-01 4.757399999999999962e-01 2.986209999999999809e+00 2.136589999999999989e+00 3.170700000000000074e+00 4.350509999999999877e+00 2.642129999999999868e+00 5.750350000000000072e+00 2.967420000000000169e+00 3.717179999999999929e+00 5.434600000000000541e-01 4.328500000000000014e+00 4.800539999999999807e+00 3.185939999999999994e+00 -9.056999999999999773e-02 5.523509999999999920e+00 5.722819999999999574e+00 3.821730000000000071e+00 6.639809999999999768e+00 9.426299999999999679e-01 1.866999999999999910e-02 7.544039999999999857e+00 3.062650000000000095e+00 1.364600000000000035e+00 8.274319999999999453e+00 5.829749999999999766e+00 4.443299999999999805e+00 1.122500000000000053e+00 5.046199999999999575e-01 -6.419999999999999318e-02 2.084979999999999833e+00 3.077929999999999833e+00 1.380290000000000017e+00 2.704800000000000093e+00 5.782449999999999868e+00 8.754000000000000670e-02 3.531350000000000211e+00 9.053900000000000281e-01 1.320489999999999942e+00 4.766510000000000247e+00 3.233800000000000008e+00 2.919259999999999966e+00 5.483120000000000438e+00 5.698030000000000150e+00 2.240670000000000162e+00 6.683840000000000003e+00 7.536300000000000221e-01 2.844660000000000188e+00 7.572899999999999743e+00 3.359189999999999898e+00 -1.543779999999999930e+00 8.236100000000000421e+00 5.572770000000000223e+00 4.213630000000000209e+00 3.031149999999999789e+00 7.604910000000000281e+00 1.520750000000000046e+00 1.152700000000000058e+00 2.446439999999999948e+00 1.378859999999999975e+00 1.013011000000000017e+01 4.989270000000000316e+00 -2.004900000000000015e-01 5.776510000000000034e+00 7.629360000000000142e+00 2.675409999999999844e+00 3.769379999999999953e+00 2.421660000000000146e+00 -1.563679999999999959e+00 4.589220000000000077e+00 5.093510000000000204e+00 1.511060000000000070e+00 8.273770000000000735e+00 7.538490000000000357e+00 4.271189999999999820e+00 6.578350000000000364e+00 2.787129999999999885e+00 3.012000000000000094e-02 7.317829999999999835e+00 4.968210000000000015e+00 3.025209999999999955e+00 5.154000000000000248e-02 5.429999999999999931e-03 4.494530000000000136e+00 1.086870000000000003e+00 2.708950000000000191e+00 -1.615520000000000067e+00 9.914360000000000284e+00 5.069429999999999659e+00 2.822869999999999990e+00 5.783689999999999998e+00 7.636359999999999815e+00 -1.487499999999999933e-01 3.831119999999999859e+00 2.627060000000000173e+00 1.448499999999999899e+00 4.571699999999999875e+00 5.057439999999999714e+00 1.491900000000000004e+00 6.506190000000000140e+00 2.573659999999999837e+00 2.909440000000000026e+00 7.362350000000000172e+00 5.113739999999999952e+00
1.619729999999999892e+00 7.223199999999999621e-01 6.149900000000000366e-01 2.916749999999999954e+00 1.859930000000000083e+00 3.195539999999999825e+00 4.629039999999999822e+00 2.810179999999999900e+00 5.625969999999999693e+00 3.024109999999999854e+00 3.543540000000000134e+00 7.203800000000000203e-01 4.601860000000000284e+00 4.537250000000000227e+00 3.180019999999999847e+00 -1.656199999999999894e-01 5.478329999999999700e+00 5.717039999999999900e+00 3.838429999999999787e+00 6.530940000000000190e+00 7.647300000000000209e-01 8.278000000000000635e-02 7.171520000000000117e+00 3.110279999999999934e+00 1.482169999999999987e+00 8.173320000000000363e+00 5.656819999999999737e+00 4.698620000000000019e+00 1.060319999999999929e+00 6.659100000000000019e-01 2.729999999999999788e-03 1.778140000000000054e+00 3.307599999999999874e+00 1.704539999999999944e+00 2.832899999999999974e+00 5.716770000000000351e+00 9.203999999999999682e-02 3.674980000000000135e+00 6.938199999999999923e-01 1.534869999999999957e+00 4.546249999999999680e+00 3.170700000000000074e+00 3.000939999999999941e+00 5.576150000000000162e+00 5.756490000000000329e+00 2.316749999999999865e+00 6.559949999999999726e+00 7.854100000000000525e-01 3.047919999999999963e+00 7.086289999999999978e+00 3.286509999999999820e+00 -1.640390000000000015e+00 8.307199999999999918e+00 5.674430000000000085e+00 4.580140000000000100e+00 3.006229999999999958e+00 7.504990000000000272e+00 -2.153799999999999881e-01 8.927989999999999426e+00 2.652080000000000215e+00 3.148839999999999861e+00 1.939440000000000053e+00 4.999119999999999564e+00 -4.040000000000000188e-03 5.440640000000000143e+00 7.578879999999999839e+00 3.092089999999999783e+00 3.642430000000000057e+00 2.506990000000000052e+00 4.480430000000000135e+00 4.654620000000000424e+00 5.028039999999999843e+00 1.471319999999999961e+00 8.102589999999999293e+00 7.448310000000000208e+00 4.567379999999999995e+00 6.366249999999999964e+00 2.613119999999999887e+00 -6.349000000000000477e-02 7.211500000000000021e+00 5.168160000000000309e+00 1.659669999999999979e+00 2.955439999999999845e+00 7.599300000000000388e+00 2.890559999999999796e+00 8.984149999999999636e+00 2.664950000000000152e+00 3.740999999999999881e-02 1.992380000000000040e+00 5.085930000000000284e+00 4.749920000000000364e+00 2.789340000000000153e+00 1.263199999999999878e-01 1.413999999999999979e-02 3.615790000000000060e+00 2.447360000000000202e+00 1.407359999999999944e+00 4.562640000000000029e+00 5.094960000000000377e+00 1.562699999999999978e+00 6.303219999999999601e+00 2.544820000000000082e+00 3.020849999999999813e+00 7.274420000000000108e+00 5.101659999999999862e+00
1.543230000000000102e+00 8.025999999999999801e-01 5.596799999999999553e-01 2.977920000000000122e+00 2.027010000000000201e+00 3.236229999999999940e+00 4.704320000000000057e+00 2.856250000000000178e+00 5.766619999999999635e+00 3.022580000000000044e+00 3.632540000000000102e+00 6.136000000000000343e-01 4.551339999999999719e+00 4.647400000000000198e+00 3.225699999999999790e+00 7.237000000000000377e-02 5.606200000000000294e+00 5.789780000000000371e+00 3.992820000000000036e+00 6.619629999999999903e+00 7.257400000000000517e-01 -1.463000000000000064e-02 7.379649999999999821e+00 3.337880000000000180e+00 1.582729999999999970e+00 8.322699999999999321e+00 5.832959999999999923e+00 4.506709999999999994e+00 1.011509999999999909e+00 6.535199999999999898e-01 -2.256999999999999978e-02 1.996510000000000007e+00 3.355389999999999873e+00 1.606840000000000046e+00 2.882239999999999913e+00 5.787420000000000009e+00 8.970999999999999808e-02 3.227030000000000065e+00 8.898099999999999898e-01 1.504110000000000058e+00 4.625110000000000277e+00 3.307189999999999852e+00 3.094889999999999919e+00 5.585060000000000358e+00 5.942389999999999617e+00 2.165010000000000101e+00 6.593300000000000161e+00 9.267600000000000282e-01 3.168120000000000047e+00 7.458770000000000344e+00 3.416970000000000063e+00 -1.440350000000000019e+00 8.265119999999999578e+00 5.997569999999999624e+00 4.652169999999999916e+00 2.951880000000000059e+00 7.628210000000000157e+00 1.384419999999999984e+00 9.938799999999999857e-01 2.556280000000000108e+00 3.189499999999999780e+00 1.981910000000000061e+00 4.982990000000000030e+00 1.814999999999999947e-02 5.673070000000000057e+00 7.682179999999999787e+00 2.985630000000000006e+00 3.742879999999999985e+00 2.462200000000000166e+00 -1.513700000000000045e+00 4.730579999999999785e+00 5.184820000000000206e+00 1.565469999999999917e+00 8.259320000000000661e+00 7.654989999999999739e+00 4.499270000000000103e+00 6.401839999999999975e+00 2.598450000000000149e+00 -6.454999999999999627e-02 7.375499999999999723e+00 5.272560000000000358e+00 1.660330000000000084e+00 3.000939999999999941e+00 7.731040000000000134e+00 4.687070000000000292e+00 1.158139999999999947e+00 2.528919999999999835e+00 -1.514070000000000027e+00 1.005117000000000083e+01 5.281240000000000379e+00 4.621529999999999916e+00 2.811510000000000176e+00 3.830000000000000071e-03 1.371999999999999956e-02 3.699699999999999989e+00 2.723360000000000003e+00 1.578179999999999916e+00 4.697639999999999816e+00 5.119550000000000267e+00 1.607949999999999990e+00 6.631039999999999601e+00 2.794960000000000111e+00 3.139440000000000008e+00 7.493229999999999613e+00 5.287709999999999688e+00
1.533849999999999936e+00 7.631299999999999750e-01 6.493100000000000538e-01 3.061300000000000132e+00 1.731729999999999992e+00 3.258879999999999999e+00 4.758759999999999657e+00 2.863840000000000163e+00 5.638029999999999653e+00 3.153070000000000039e+00 3.560039999999999871e+00 7.024200000000000443e-01 4.773349999999999760e+00 4.481959999999999944e+00 3.070809999999999818e+00 1.025800000000000045e-01 5.539880000000000138e+00 5.631789999999999630e+00 4.390209999999999724e+00 6.540759999999999685e+00 7.188400000000000345e-01 3.026699999999999946e-01 7.224450000000000038e+00 3.269629999999999814e+00 1.737060000000000048e+00 8.182760000000000034e+00 5.854709999999999859e+00 4.554920000000000080e+00 9.262599999999999723e-01 6.758699999999999708e-01 1.168000000000000010e-01 1.969090000000000007e+00 3.198020000000000085e+00 1.612630000000000008e+00 2.926509999999999945e+00 5.820759999999999934e+00 8.859000000000000208e-02 3.617830000000000101e+00 5.515900000000000247e-01 1.733389999999999986e+00 4.698579999999999757e+00 3.159229999999999983e+00 3.204520000000000035e+00 5.469979999999999620e+00 5.947219999999999729e+00 2.412529999999999841e+00 6.539390000000000036e+00 9.213900000000000423e-01 3.335049999999999848e+00 7.400680000000000369e+00 3.414039999999999964e+00 -1.224839999999999929e+00 8.355270000000000863e+00 5.613470000000000404e+00 4.532280000000000086e+00 3.019750000000000156e+00 7.601589999999999847e+00 1.546610000000000040e+00 1.040489999999999915e+00 2.583260000000000112e+00 1.771709999999999896e+00 1.000650000000000084e+01 5.153719999999999857e+00 7.251000000000000500e-02 5.584139999999999660e+00 7.624509999999999899e+00 3.120890000000000164e+00 3.697420000000000151e+00 2.519000000000000128e+00 4.634629999999999583e+00 4.551879999999999704e+00 5.051770000000000316e+00 1.918670000000000098e+00 8.286849999999999383e+00 7.568069999999999631e+00 -1.241379999999999928e+00 6.496830000000000105e+00 2.636800000000000033e+00 3.998900000000000232e-01 7.382150000000000212e+00 5.162250000000000227e+00 3.166220000000000034e+00 1.559200000000000030e-01 1.956000000000000100e-02 4.723849999999999660e+00 1.055199999999999916e+00 2.609939999999999927e+00 7.950000000000000469e-03 1.964239999999999986e+00 5.042559999999999931e+00 4.683270000000000266e+00 2.740050000000000097e+00 3.355999999999999955e-02 7.109999999999999654e-02 3.916349999999999998e+00 2.335960000000000036e+00 1.647980000000000000e+00 4.770520000000000316e+00 5.004139999999999588e+00 1.933079999999999909e+00 6.485339999999999883e+00 2.608900000000000219e+00 3.416790000000000216e+00 7.463610000000000078e+00 5.160350000000000215e+00
1.570680000000000076e+00 7.640799999999999814e-01 5.852199999999999624e-01 3.044700000000000184e+00 1.710800000000000098e+00 3.134090000000000042e+00 4.638410000000000366e+00 2.476459999999999884e+00 5.496100000000000207e+00 3.177239999999999842e+00 3.445399999999999796e+00 5.511599999999999833e-01 4.742650000000000254e+00 4.299800000000000288e+00 2.933689999999999909e+00 6.210549999999999571e+00 5.058880000000000265e+00 5.503569999999999851e+00 1.029623999999999917e+01 6.438410000000000188e+00 6.829899999999999860e-01 6.337220000000000297e+00 6.987750000000000128e+00 3.066889999999999894e+00 7.856630000000000003e+00 7.724310000000000009e+00 5.398729999999999585e+00 4.594719999999999693e+00 9.908700000000000285e-01 5.632099999999999884e-01 6.260710000000000441e+00 1.649080000000000101e+00 3.056579999999999853e+00 7.630040000000000155e+00 2.371290000000000120e+00 5.579690000000000261e+00 6.359230000000000160e+00 3.603400000000000158e+00 6.219999999999999973e-01 7.907479999999999620e+00 4.332349999999999923e+00 3.050520000000000120e+00 9.284340000000000259e+00 5.132509999999999906e+00 5.421140000000000292e+00 8.613670000000000826e+00 6.363080000000000069e+00 8.461800000000000432e-01 9.462690000000000268e+00 7.090980000000000061e+00 3.136179999999999968e+00 1.102793999999999919e+01 7.764219999999999899e+00 5.441900000000000404e+00 1.088034000000000034e+01 2.615390000000000104e+00 7.379690000000000083e+00 7.755880000000000329e+00 8.309800000000000519e-01 2.432529999999999859e+00 1.395772999999999975e+01 9.522589999999999222e+00 5.068579999999999863e+00 7.797049999999999592e+00 2.629420000000000091e+00 3.264999999999999847e-02 3.219279999999999919e+00 3.425520000000000120e+00 2.376419999999999977e+00 1.074432000000000009e+01 4.196419999999999817e+00 4.803860000000000241e+00 7.765830000000000233e+00 7.499979999999999869e+00 7.185870000000000424e+00 1.099723999999999968e+01 6.161739999999999995e+00 2.569240000000000190e+00 6.288020000000000387e+00 6.847080000000000055e+00 5.014300000000000423e+00 7.848589999999999733e+00 7.807800000000000296e+00 2.628000000000000128e-02 4.673359999999999737e+00 8.853199999999999958e-01 2.554679999999999840e+00 1.097363999999999962e+01 9.425470000000000681e+00 4.884949999999999903e+00 4.836299999999999599e+00 2.815119999999999845e+00 2.185000000000000137e-02 6.394949999999999690e+00 3.411080000000000112e+00 2.479359999999999786e+00 7.683760000000000367e+00 4.182699999999999640e+00 4.895669999999999966e+00 7.910389999999999588e+00 6.188270000000000159e+00 2.601570000000000160e+00 9.482989999999999142e+00 6.971840000000000259e+00 4.914279999999999760e+00
1.403909999999999991e+00 8.993100000000000538e-01 8.517000000000000126e-01 3.159720000000000084e+00 2.063880000000000159e+00 3.239250000000000185e+00 4.487669999999999604e+00 3.042089999999999961e+00 5.843720000000000248e+00 3.049690000000000012e+00 3.693839999999999790e+00 5.004399999999999959e-01 4.541339999999999932e+00 4.774440000000000239e+00 3.176229999999999887e+00 -1.789999999999999925e-03 5.764890000000000292e+00 5.764630000000000365e+00 3.770859999999999879e+00 6.710580000000000211e+00 9.079599999999999893e-01 1.628999999999999893e-02 7.471260000000000012e+00 3.178879999999999928e+00 1.414979999999999905e+00 8.483190000000000452e+00 5.543190000000000062e+00 4.469280000000000364e+00 1.029959999999999987e+00 5.899199999999999999e-01 -7.023999999999999688e-02 2.030780000000000030e+00 3.264839999999999964e+00 1.503640000000000088e+00 3.205249999999999932e+00 5.616179999999999950e+00 -4.333999999999999658e-02 3.692359999999999864e+00 7.576199999999999601e-01 1.586899999999999977e+00 4.779930000000000234e+00 3.042660000000000142e+00 3.035480000000000178e+00 5.699519999999999698e+00 5.664049999999999585e+00 1.998550000000000049e+00 6.683970000000000411e+00 6.219400000000000484e-01 2.895900000000000141e+00 7.405310000000000059e+00 3.314140000000000086e+00 -1.569579999999999975e+00 8.425610000000000710e+00 5.762739999999999974e+00 4.505460000000000242e+00 8.281439999999999912e+00 1.230399999999999966e-01 3.722000000000000308e-02 9.347590000000000288e+00 2.708839999999999915e+00 1.548340000000000050e+00 1.034042999999999957e+01 5.095519999999999605e+00 1.447349999999999914e+00 2.966209999999999791e+00 1.671999999999999875e-02 3.144509999999999916e+00 3.906179999999999986e+00 2.439890000000000114e+00 -1.382050000000000001e+00 4.692059999999999675e+00 5.107540000000000191e+00 1.441109999999999891e+00 8.460839999999999250e+00 7.464730000000000310e+00 4.417539999999999800e+00 6.638950000000000351e+00 2.724479999999999791e+00 -1.021800000000000069e-01 7.399429999999999730e+00 5.086070000000000313e+00 1.360419999999999963e+00 3.254779999999999784e+00 7.580020000000000202e+00 3.071540000000000159e+00 9.297530000000000072e+00 2.563590000000000035e+00 -1.545879999999999921e+00 1.035722999999999949e+01 5.162519999999999776e+00 2.836050000000000182e+00 5.856830000000000425e+00 7.614650000000000141e+00 6.454000000000000015e-02 3.728040000000000020e+00 2.514860000000000095e+00 1.524049999999999905e+00 4.853340000000000209e+00 4.985660000000000203e+00 1.443889999999999896e+00 6.471599999999999575e+00 2.408399999999999874e+00 2.950239999999999974e+00 7.534919999999999618e+00 5.104379999999999917e+00