6.044673286000000090e+00 0.000000000000000000e+00 0.000000000000000000e+00 -3.055567094000000150e+00 5.316959532000000266e+00 0.000000000000000000e+00 7.039105999999999835e-03 4.059051699999999957e-02 1.015377568199999914e+01
5.988256366999999969e+00 0.000000000000000000e+00 0.000000000000000000e+00 -3.006238500999999896e+00 5.196219378000000333e+00 0.000000000000000000e+00 1.302008600000000016e-02 3.257320300000000196e-02 9.764261213999999356e+00
6.284652473999999600e+00 0.000000000000000000e+00 0.000000000000000000e+00 -3.347750025999999934e+00 5.411754316999999759e+00 0.000000000000000000e+00 7.573061100000000323e-02 1.430336209999999997e-01 9.718918836000000283e+00
6.094713759000000231e+00 0.000000000000000000e+00 0.000000000000000000e+00 -3.048024623999999960e+00 5.271915715999999641e+00 0.000000000000000000e+00 -3.051125500000000101e-02 -6.576178000000000232e-03 9.876391269000000861e+00
6.151146005000000194e+00 0.000000000000000000e+00 0.000000000000000000e+00 -3.033181652000000117e+00 5.351221834999999594e+00 0.000000000000000000e+00 -1.865219200000000146e-02 -3.886772000000000143e-02 9.875023363000000387e+00
6.182629625999999767e+00 0.000000000000000000e+00 0.000000000000000000e+00 -3.189012206000000127e+00 5.349369316999999846e+00 0.000000000000000000e+00 9.765881099999999815e-02 3.229615949999999902e-01 1.017636081000000026e+01
6.045711919999999573e+00 0.000000000000000000e+00 0.000000000000000000e+00 -2.815726667999999933e+00 5.318806881999999625e+00 0.000000000000000000e+00 -3.133419999999999955e-02 -1.837814239999999988e-01 1.026453399400000066e+01
6.070649869000000365e+00 0.000000000000000000e+00 0.000000000000000000e+00 -2.873916286000000042e+00 5.304178403999999958e+00 0.000000000000000000e+00 -5.622951899999999864e-02 -2.083839889999999917e-01 1.032599622999999944e+01
6.138986708000000014e+00 0.000000000000000000e+00 0.000000000000000000e+00 -3.015900579999999831e+00 5.325694355000000435e+00 0.000000000000000000e+00 -1.786075300000000005e-02 7.820641999999999178e-03 9.950558879000000800e+00
6.246798473000000129e+00 0.000000000000000000e+00 0.000000000000000000e+00 -3.209588242999999785e+00 5.348053660999999792e+00 0.000000000000000000e+00 3.432106499999999782e-02 1.048280330000000010e-01 9.744453156000000504e+00
6.135811720999999608e+00 0.000000000000000000e+00 0.000000000000000000e+00 -3.084377281000000082e+00 5.308820855999999644e+00 0.000000000000000000e+00 -1.066147400000000064e-02 -1.554926400000000014e-02 9.814979286999999886e+00
6.103190953999999557e+00 0.000000000000000000e+00 0.000000000000000000e+00 -3.140185686999999781e+00 5.303905274999999975e+00 0.000000000000000000e+00 6.665972000000000564e-02 8.111048499999999606e-02 1.016520291099999973e+01
6.386604186999999655e+00 0.000000000000000000e+00 0.000000000000000000e+00 -3.279512728999999904e+00 5.468919033999999790e+00 0.000000000000000000e+00 5.053616500000000095e-02 5.651337299999999869e-02 9.673072636000000557e+00
6.248833739000000165e+00 0.000000000000000000e+00 0.000000000000000000e+00 -3.069989056999999910e+00 5.406837992999999898e+00 0.000000000000000000e+00 1.940183300000000027e-02 -2.132593550000000115e-01 9.664523751999999135e+00
6.300316996000000280e+00 0.000000000000000000e+00 0.000000000000000000e+00 -3.043055873000000133e+00 5.434652458000000408e+00 0.000000000000000000e+00 5.158008000000000384e-03 -3.050884900000000108e-02 9.731968046000000427e+00
6.125994546000000263e+00 0.000000000000000000e+00 0.000000000000000000e+00 -2.982488389999999878e+00 5.322531151999999821e+00 0.000000000000000000e+00 -4.397673000000000380e-03 -7.302886899999999626e-02 9.607466814000000355e+00
6.195111746000000252e+00 0.000000000000000000e+00 0.000000000000000000e+00 -3.198648262999999936e+00 5.335098677000000400e+00 0.000000000000000000e+00 8.847024600000000238e-02 2.969178410000000157e-01 1.031785466900000081e+01
6.308747236000000314e+00 0.000000000000000000e+00 0.000000000000000000e+00 -2.976270421999999805e+00 5.469741027000000422e+00 0.000000000000000000e+00 -4.154883200000000082e-02 -4.293391779999999880e-01 9.919246691999999754e+00
6.139405818000000181e+00 0.000000000000000000e+00 0.000000000000000000e+00 -3.143912456999999883e+00 5.291396469999999574e+00 0.000000000000000000e+00 5.386413899999999838e-02 1.877538400000000052e-01 1.004992782799999951e+01
6.103490182999999902e+00 0.000000000000000000e+00 0.000000000000000000e+00 -3.114152449000000100e+00 5.326065580999999938e+00 0.000000000000000000e+00 5.575144900000000153e-02 1.963857840000000077e-01 1.001576458999999986e+01
6.216372393000000329e+00 0.000000000000000000e+00 0.000000000000000000e+00 -2.992439205000000157e+00 5.372166456999999617e+00 0.000000000000000000e+00 -6.362111500000000586e-02 -1.099673800000000035e-01 9.938781553000000102e+00
6.094919596999999634e+00 0.000000000000000000e+00 0.000000000000000000e+00 -3.011002004999999926e+00 5.276102719999999913e+00 0.000000000000000000e+00 3.255122999999999957e-03 -1.195546769999999981e-01 9.616445592999999903e+00
6.211549211000000348e+00 0.000000000000000000e+00 0.000000000000000000e+00 -3.071614836999999820e+00 5.369363575000000388e+00 0.000000000000000000e+00 -2.939740500000000145e-02 -1.176566879999999954e-01 9.819979168999999786e+00
6.273642340000000317e+00 0.000000000000000000e+00 0.000000000000000000e+00 -3.034711233999999980e+00 5.367417050000000245e+00 0.000000000000000000e+00 -3.675279800000000319e-02 -9.676647600000000404e-02 9.764711573999999672e+00
6.265084444000000197e+00 0.000000000000000000e+00 0.000000000000000000e+00 -3.029943257999999862e+00 5.356943726999999988e+00 0.000000000000000000e+00 -7.713283499999999682e-02 -4.956619699999999934e-02 9.739188132000000664e+00
6.229383495000000437e+00 0.000000000000000000e+00 0.000000000000000000e+00 -3.353134084000000126e+00 5.340300014000000317e+00 0.000000000000000000e+00 1.004125520000000021e-01 1.292892290000000055e-01 9.912398016999999228e+00
6.170432198000000312e+00 0.000000000000000000e+00 0.000000000000000000e+00 -3.162559368999999787e+00 5.361090319999999743e+00 0.000000000000000000e+00 1.710674300000000064e-02 7.572305899999999534e-02 9.838313733999999755e+00
6.181758186999999793e+00 0.000000000000000000e+00 0.000000000000000000e+00 -3.018371060999999855e+00 5.359329579999999815e+00 0.000000000000000000e+00 -1.196368599999999942e-02 -1.851599989999999918e-01 9.842035343999999242e+00
6.080291332999999909e+00 0.000000000000000000e+00 0.000000000000000000e+00 -3.035584886000000093e+00 5.267196798999999707e+00 0.000000000000000000e+00 2.730144099999999921e-02 -5.278043100000000265e-02 9.809505762000000573e+00
6.159054430000000302e+00 0.000000000000000000e+00 0.000000000000000000e+00 -3.139140408999999909e+00 5.344579266000000217e+00 0.000000000000000000e+00 8.501580699999999879e-02 2.047732620000000114e-01 9.807207475000000230e+00
6.332971971000000089e+00 0.000000000000000000e+00 0.000000000000000000e+00 -3.183491506000000193e+00 5.392714623999999901e+00 0.000000000000000000e+00 -4.872617000000000094e-03 4.835793099999999983e-02 9.649797366999999682e+00
6.139066741999999799e+00 0.000000000000000000e+00 0.000000000000000000e+00 -3.101542783999999831e+00 5.294368851999999848e+00 0.000000000000000000e+00 -1.655279999999999913e-04 1.400502560000000118e-01 9.878638586999999305e+00
6.226222747999999640e+00 0.000000000000000000e+00 0.000000000000000000e+00 -3.171876838000000198e+00 5.378475425000000421e+00 0.000000000000000000e+00 2.607960999999999960e-02 1.641877270000000055e-01 9.886235493999999235e+00
6.204976505000000309e+00 0.000000000000000000e+00 0.000000000000000000e+00 -3.155888969999999905e+00 5.387630677999999840e+00 0.000000000000000000e+00 -2.092089499999999838e-02 -1.877041899999999999e-02 9.820835325999999199e+00
6.283120616999999797e+00 0.000000000000000000e+00 0.000000000000000000e+00 -3.075674992000000163e+00 5.411176932000000050e+00 0.000000000000000000e+00 -2.740124000000000032e-02 -1.239458809999999939e-01 9.927373238999999572e+00
6.193096416999999576e+00 0.000000000000000000e+00 0.000000000000000000e+00 -3.030035256000000121e+00 5.365350915999999692e+00 0.000000000000000000e+00 -2.358854999999999980e-02 -1.659890780000000121e-01 9.830200361999999359e+00
6.123354271000000182e+00 0.000000000000000000e+00 0.000000000000000000e+00 -2.967877989999999855e+00 5.298307027999999974e+00 0.000000000000000000e+00 -6.066064200000000073e-02 -8.319082599999999550e-02 9.871732319999999561e+00
6.078240444000000409e+00 0.000000000000000000e+00 0.000000000000000000e+00 -3.051805262999999879e+00 5.262228355999999607e+00 0.000000000000000000e+00 1.106356600000000037e-02 -6.307790000000000402e-04 9.672923928999999532e+00
6.270236665999999737e+00 0.000000000000000000e+00 0.000000000000000000e+00 -3.195376254000000138e+00 5.451355937999999846e+00 0.000000000000000000e+00 1.862529400000000057e-02 -8.556580699999999373e-02 9.656621889000000181e+00
6.202153631999999917e+00 0.000000000000000000e+00 0.000000000000000000e+00 -3.026019946999999988e+00 5.322031025000000248e+00 0.000000000000000000e+00 -2.544970400000000008e-02 -6.411058399999999824e-02 9.825829840999999121e+00
6.100057129999999717e+00 0.000000000000000000e+00 0.000000000000000000e+00 -3.037064983000000051e+00 5.275159142999999773e+00 0.000000000000000000e+00 8.710321999999999509e-03 7.543946000000000159e-03 9.840779421000000582e+00
6.077812071000000316e+00 0.000000000000000000e+00 0.000000000000000000e+00 -3.076808236000000196e+00 5.265493488999999805e+00 0.000000000000000000e+00 7.292388999999999816e-03 9.635435200000000422e-02 9.784815359999999629e+00
6.170405429999999747e+00 0.000000000000000000e+00 0.000000000000000000e+00 -3.063356485999999990e+00 5.353721722000000405e+00 0.000000000000000000e+00 1.660214499999999871e-02 -2.990593799999999997e-02 9.821756489000000201e+00
6.289182606999999869e+00 0.000000000000000000e+00 0.000000000000000000e+00 -3.082359637999999791e+00 5.429973988999999612e+00 0.000000000000000000e+00 -1.161329269999999969e-01 -3.744090070000000159e-01 1.024761619200000062e+01
6.123071483000000370e+00 0.000000000000000000e+00 0.000000000000000000e+00 -3.195946085000000103e+00 5.362462548999999967e+00 0.000000000000000000e+00 8.225597900000000684e-02 1.454094780000000087e-01 1.003533118600000051e+01
6.307246500999999839e+00 0.000000000000000000e+00 0.000000000000000000e+00 -3.142528238999999779e+00 5.415385512000000290e+00 0.000000000000000000e+00 -2.044941899999999993e-02 -3.376747399999999871e-02 9.758014308999999997e+00
6.052437682999999957e+00 0.000000000000000000e+00 0.000000000000000000e+00 -3.118391256999999861e+00 5.321380640000000106e+00 0.000000000000000000e+00 3.475245600000000101e-02 5.858314800000000155e-02 1.025012614499999941e+01
6.173762476000000277e+00 0.000000000000000000e+00 0.000000000000000000e+00 -3.237584811000000062e+00 5.349379629999999608e+00 0.000000000000000000e+00 4.457481099999999891e-02 1.293088300000000135e-01 9.947049051000000475e+00
6.130141252999999679e+00 0.000000000000000000e+00 0.000000000000000000e+00 -3.103939800000000027e+00 5.311916133000000428e+00 0.000000000000000000e+00 1.564509500000000122e-02 6.487184000000000006e-02 9.822360741000000672e+00
6.224198850999999699e+00 0.000000000000000000e+00 0.000000000000000000e+00 -3.060901905000000145e+00 5.415800394999999767e+00 0.000000000000000000e+00 -3.022249899999999989e-02 -2.008306079999999938e-01 9.981597431000000853e+00
