1.666339999999999932e+00 8.745100000000000096e-01 5.875299999999999967e-01 3.339100000000000179e+00 1.858570000000000055e+00 3.173989999999999867e+00 4.794220000000000148e+00 2.616239999999999899e+00 5.855870000000000353e+00 3.028090000000000170e+00 3.584529999999999994e+00 7.109600000000000364e-01 4.776460000000000150e+00 4.642100000000000115e+00 3.328710000000000058e+00 2.223199999999999898e-01 5.479160000000000252e+00 5.770669999999999966e+00 4.449670000000000236e+00 6.529230000000000089e+00 7.932900000000000507e-01 -1.199599999999999972e-01 7.159259999999999735e+00 3.064919999999999867e+00 1.339679999999999982e+00 8.202159999999999229e+00 5.635220000000000340e+00 4.584620000000000140e+00 9.127800000000000358e-01 5.656999999999999806e-01 8.519999999999999796e-03 1.734830000000000094e+00 3.148829999999999796e+00 1.640130000000000088e+00 2.790329999999999977e+00 5.565559999999999619e+00 -1.572099999999999886e-01 3.056010000000000115e+00 7.291600000000000303e-01 1.590710000000000068e+00 4.467690000000000161e+00 3.079829999999999846e+00 3.162599999999999856e+00 5.319989999999999775e+00 5.723200000000000287e+00 2.012469999999999981e+00 6.305010000000000225e+00 7.016599999999999504e-01 3.058899999999999952e+00 7.202910000000000146e+00 3.167899999999999938e+00 -1.790489999999999915e+00 8.166309999999999292e+00 5.492049999999999876e+00 6.246190000000000353e+00 1.172499999999999931e-01 2.764000000000000137e-02 1.626300000000000079e+00 9.494099999999999762e-01 2.520080000000000098e+00 1.667519999999999891e+00 9.936700000000000088e+00 5.137059999999999960e+00 1.654979999999999896e+00 2.627009999999999845e+00 8.075000000000000233e-02 3.298369999999999802e+00 3.803879999999999928e+00 2.577830000000000066e+00 -1.304009999999999891e+00 4.636029999999999873e+00 5.246649999999999814e+00 1.804059999999999997e+00 8.162449999999999761e+00 7.593090000000000117e+00 4.591429999999999900e+00 6.522969999999999935e+00 2.734189999999999898e+00 -8.760000000000000425e-03 7.144140000000000157e+00 5.027969999999999828e+00 1.521999999999999915e-02 1.075633999999999979e+01 7.586999999999999744e+00 4.637209999999999610e+00 9.203799999999999759e-01 2.454509999999999970e+00 -1.575369999999999937e+00 9.919639999999999347e+00 5.051169999999999938e+00 4.581660000000000288e+00 2.751329999999999831e+00 1.663999999999999854e-02 -7.001000000000000278e-02 3.601620000000000044e+00 2.603070000000000217e+00 1.759079999999999977e+00 4.495099999999999874e+00 4.777029999999999887e+00 1.431669999999999998e+00 6.240109999999999602e+00 2.481069999999999887e+00 2.812669999999999781e+00 7.173079999999999679e+00 4.909430000000000405e+00
1.508720000000000061e+00 7.602499999999999813e-01 5.987599999999999589e-01 3.031439999999999912e+00 1.701030000000000042e+00 3.061809999999999921e+00 4.557430000000000092e+00 2.532869999999999955e+00 5.514770000000000394e+00 2.997700000000000031e+00 3.418340000000000156e+00 5.895599999999999730e-01 4.526749999999999829e+00 4.338689999999999714e+00 3.044950000000000045e+00 6.078649999999999665e+00 5.149960000000000093e+00 5.487849999999999895e+00 9.842280000000000584e+00 6.330549999999999677e+00 7.601900000000000324e-01 6.053829999999999600e+00 6.920160000000000089e+00 2.965190000000000214e+00 7.559660000000000046e+00 7.768069999999999808e+00 5.447770000000000223e+00 4.541710000000000136e+00 9.819799999999999640e-01 6.366100000000000092e-01 6.080860000000000376e+00 1.727549999999999919e+00 3.076830000000000176e+00 7.608159999999999812e+00 2.552630000000000177e+00 5.530590000000000117e+00 6.081470000000000375e+00 3.377699999999999925e+00 6.623599999999999488e-01 7.591990000000000016e+00 4.351899999999999658e+00 3.058330000000000215e+00 9.098010000000000375e+00 5.182719999999999771e+00 5.509380000000000166e+00 8.243499999999999162e+00 6.371240000000000236e+00 7.865900000000000114e-01 9.086919999999999220e+00 7.031489999999999796e+00 3.168979999999999908e+00 1.063189999999999991e+01 7.809700000000000308e+00 5.382539999999999658e+00 1.053480000000000061e+01 2.566749999999999865e+00 7.346560000000000201e+00 6.048000000000000043e+00 8.714100000000000179e+00 2.439060000000000006e+00 7.576889999999999681e+00 9.547290000000000276e+00 4.892190000000000261e+00 6.066290000000000404e+00 5.087220000000000297e+00 7.325630000000000308e+00 3.035579999999999945e+00 3.456550000000000011e+00 2.425980000000000025e+00 4.562490000000000379e+00 4.291210000000000413e+00 4.888379999999999725e+00 7.514540000000000219e+00 7.581579999999999764e+00 7.204259999999999664e+00 1.049239999999999995e+01 6.106410000000000338e+00 2.491039999999999921e+00 6.050410000000000288e+00 6.897199999999999775e+00 4.843429999999999680e+00 7.674050000000000260e+00 2.587800000000000100e+00 7.350819999999999688e+00 4.555609999999999715e+00 8.717000000000000304e-01 2.471119999999999983e+00 1.061609999999999943e+01 9.578250000000000597e+00 4.942619999999999791e+00 9.138210000000000832e+00 5.212550000000000239e+00 7.339450000000000252e+00 6.067289999999999850e+00 3.508379999999999832e+00 2.440920000000000201e+00 7.595509999999999984e+00 4.304310000000000080e+00 4.904690000000000438e+00 7.637270000000000003e+00 6.124119999999999564e+00 2.503589999999999982e+00 9.127810000000000201e+00 6.944659999999999833e+00 4.962030000000000385e+00
1.519139999999999935e+00 8.154500000000000082e-01 7.346500000000000252e-01 3.184480000000000199e+00 1.995780000000000109e+00 3.057659999999999823e+00 4.532860000000000333e+00 2.800229999999999997e+00 5.714949999999999974e+00 2.976420000000000066e+00 3.600249999999999950e+00 4.426100000000000034e-01 4.640179999999999971e+00 4.497279999999999944e+00 3.262399999999999967e+00 3.549000000000000071e-02 5.400979999999999670e+00 5.695170000000000066e+00 4.388989999999999725e+00 6.218750000000000000e+00 7.715600000000000236e-01 1.118699999999999972e-01 7.177450000000000330e+00 3.217159999999999798e+00 1.676840000000000108e+00 8.164619999999999322e+00 5.630119999999999791e+00 4.634680000000000355e+00 7.738500000000000378e-01 7.728500000000000369e-01 1.218700000000000061e-01 1.952229999999999910e+00 3.229699999999999793e+00 1.615359999999999907e+00 2.672229999999999883e+00 5.658789999999999765e+00 -9.415999999999999370e-02 3.267790000000000195e+00 8.503199999999999648e-01 1.747519999999999962e+00 4.675519999999999676e+00 2.923820000000000086e+00 3.071359999999999868e+00 5.219330000000000247e+00 5.814429999999999765e+00 1.732490000000000085e+00 6.445689999999999920e+00 5.268399999999999750e-01 3.208359999999999879e+00 7.205869999999999997e+00 3.283599999999999852e+00 -1.433869999999999978e+00 7.991200000000000081e+00 5.740310000000000024e+00 3.184289999999999843e+00 1.070895999999999937e+01 7.584660000000000402e+00 6.299000000000000432e-02 8.915720000000000312e+00 2.604480000000000128e+00 3.085710000000000175e+00 1.847159999999999913e+00 4.931659999999999933e+00 1.405010000000000092e+00 2.561409999999999965e+00 4.977999999999999786e-02 3.093859999999999832e+00 3.662549999999999972e+00 2.247459999999999791e+00 4.677909999999999791e+00 4.471589999999999954e+00 5.116419999999999746e+00 1.766590000000000105e+00 8.152520000000000877e+00 7.376330000000000275e+00 -1.371790000000000065e+00 6.234219999999999651e+00 2.752009999999999845e+00 -3.699999999999999947e-04 7.171030000000000015e+00 5.160149999999999793e+00 1.645780000000000021e+00 2.961869999999999781e+00 7.571799999999999642e+00 4.722509999999999764e+00 1.028440000000000021e+00 2.648330000000000073e+00 -1.422889999999999988e+00 9.754080000000000084e+00 5.156539999999999679e+00 4.666210000000000413e+00 2.600220000000000198e+00 3.056999999999999995e-02 1.894599999999999895e-01 3.595229999999999926e+00 2.491999999999999993e+00 1.552349999999999897e+00 4.570170000000000066e+00 5.027590000000000003e+00 1.823110000000000008e+00 6.522890000000000299e+00 2.412690000000000001e+00 3.219650000000000123e+00 7.068900000000000183e+00 5.348580000000000112e+00
1.491279999999999939e+00 8.612300000000000511e-01 6.274600000000000177e-01 2.972900000000000098e+00 1.868319999999999981e+00 3.107800000000000118e+00 4.432949999999999946e+00 2.816609999999999836e+00 5.613310000000000244e+00 2.986819999999999808e+00 3.548059999999999992e+00 5.958799999999999653e-01 4.491460000000000008e+00 4.532610000000000028e+00 3.095819999999999794e+00 -4.438000000000000278e-02 5.504819999999999602e+00 5.584999999999999964e+00 3.987150000000000194e+00 6.434849999999999959e+00 7.210699999999999887e-01 2.091000000000000150e-02 7.183069999999999844e+00 3.049770000000000092e+00 1.500140000000000029e+00 8.147919999999999163e+00 5.542600000000000193e+00 4.515939999999999621e+00 9.813100000000000156e-01 6.715900000000000203e-01 1.160000000000000007e-03 1.875320000000000098e+00 3.152149999999999785e+00 1.469230000000000036e+00 2.871049999999999880e+00 5.621229999999999727e+00 1.333999999999999943e-02 3.435150000000000148e+00 7.198900000000000299e-01 1.527849999999999930e+00 4.537029999999999674e+00 3.115889999999999826e+00 2.967140000000000111e+00 5.536780000000000257e+00 5.599490000000000300e+00 2.035740000000000105e+00 6.461260000000000225e+00 7.448799999999999866e-01 3.029040000000000177e+00 7.238190000000000346e+00 3.160010000000000208e+00 -1.453789999999999916e+00 8.207269999999999399e+00 5.428910000000000124e+00 5.960679999999999978e+00 4.009000000000000064e-02 2.400000000000000061e-04 -2.238000000000000059e-02 8.972490000000000521e+00 2.494790000000000063e+00 1.440879999999999939e+00 9.939650000000000318e+00 4.983279999999999710e+00 -8.486000000000000487e-02 5.584130000000000038e+00 7.434779999999999944e+00 2.979470000000000063e+00 3.598409999999999886e+00 2.432490000000000041e+00 4.425930000000000142e+00 4.595309999999999562e+00 4.940089999999999648e+00 1.464029999999999943e+00 8.132550000000000168e+00 7.356290000000000440e+00 4.442090000000000316e+00 6.292729999999999713e+00 2.498060000000000169e+00 -1.180000000000000059e-03 7.253180000000000405e+00 4.960539999999999949e+00 3.060630000000000184e+00 8.561000000000000554e-02 1.631000000000000158e-02 4.505729999999999791e+00 9.855800000000000116e-01 2.520140000000000047e+00 -1.521009999999999973e+00 9.977919999999999234e+00 5.031179999999999986e+00 2.980109999999999815e+00 5.606440000000000090e+00 7.444029999999999703e+00 1.308999999999999921e-02 3.655330000000000190e+00 2.499490000000000212e+00 1.466320000000000068e+00 4.623029999999999973e+00 4.951649999999999885e+00 1.562510000000000066e+00 6.315900000000000070e+00 2.510209999999999830e+00 3.040270000000000028e+00 7.305089999999999861e+00 4.986559999999999881e+00
1.470550000000000024e+00 9.209500000000000464e-01 7.047099999999999476e-01 3.085690000000000044e+00 1.857839999999999936e+00 3.165979999999999794e+00 4.461719999999999686e+00 2.748460000000000125e+00 5.811049999999999827e+00 3.203349999999999920e+00 3.564970000000000194e+00 5.238699999999999468e-01 4.595600000000000129e+00 4.580899999999999750e+00 3.050749999999999851e+00 -8.419999999999999707e-02 5.367390000000000327e+00 5.745350000000000179e+00 4.260419999999999874e+00 6.460960000000000036e+00 8.276599999999999513e-01 -1.045100000000000057e-01 7.216569999999999929e+00 3.172880000000000145e+00 1.448420000000000041e+00 8.090099999999999625e+00 5.680119999999999614e+00 4.560780000000000278e+00 9.531399999999999872e-01 7.504699999999999704e-01 -1.134300000000000030e-01 1.727980000000000071e+00 3.150729999999999809e+00 1.380710000000000104e+00 2.735990000000000144e+00 5.819049999999999834e+00 9.969000000000000083e-02 3.590059999999999807e+00 7.368099999999999650e-01 1.691210000000000102e+00 4.518379999999999619e+00 3.220489999999999853e+00 3.068750000000000089e+00 5.381549999999999834e+00 5.719350000000000378e+00 1.786480000000000068e+00 6.460040000000000227e+00 7.230499999999999705e-01 3.163920000000000066e+00 7.234560000000000102e+00 3.116449999999999942e+00 -1.763039999999999941e+00 8.218880000000000408e+00 5.479589999999999961e+00 6.107599999999999696e+00 1.097999999999999948e-01 8.143999999999999850e-02 1.537409999999999943e+00 1.027870000000000061e+00 2.610590000000000188e+00 1.276690000000000103e+00 9.904809999999999448e+00 5.154670000000000307e+00 -9.249999999999999542e-03 5.414039999999999964e+00 7.600369999999999848e+00 3.141020000000000145e+00 3.606040000000000134e+00 2.415200000000000014e+00 -1.552009999999999890e+00 4.439259999999999984e+00 4.992379999999999818e+00 1.337390000000000079e+00 8.100669999999999149e+00 7.591129999999999711e+00 -1.631860000000000088e+00 6.349079999999999835e+00 2.631139999999999812e+00 -1.257399999999999907e-01 7.166140000000000398e+00 5.049089999999999634e+00 3.145109999999999850e+00 1.212099999999999983e-01 5.598999999999999810e-02 4.518600000000000172e+00 9.469800000000000439e-01 2.622450000000000170e+00 -1.449699999999999878e-01 1.899119999999999919e+00 5.172740000000000116e+00 3.117859999999999854e+00 5.439470000000000027e+00 7.613500000000000156e+00 -4.653999999999999804e-02 3.621700000000000141e+00 2.570660000000000167e+00 1.468310000000000004e+00 4.544419999999999682e+00 5.132220000000000226e+00 1.516240000000000032e+00 6.345989999999999576e+00 2.587730000000000086e+00 3.043820000000000192e+00 7.216940000000000133e+00 5.023609999999999687e+00
1.585290000000000088e+00 8.561199999999999921e-01 6.937299999999999578e-01 3.169770000000000199e+00 1.733549999999999924e+00 3.246269999999999989e+00 4.639610000000000234e+00 2.819749999999999979e+00 5.734329999999999927e+00 3.108070000000000110e+00 3.616750000000000131e+00 6.037500000000000089e-01 4.692709999999999937e+00 4.402120000000000033e+00 2.995179999999999954e+00 1.075600000000000028e-01 5.388860000000000205e+00 5.627169999999999561e+00 4.695210000000000328e+00 6.087399999999999700e+00 4.956300000000000150e-01 2.354700000000000126e-01 7.106580000000000119e+00 3.018120000000000136e+00 1.691240000000000077e+00 8.072929999999999495e+00 5.724739999999999718e+00 4.504719999999999835e+00 9.315299999999999692e-01 7.337000000000000188e-01 8.032999999999999863e-02 1.913550000000000084e+00 3.284650000000000070e+00 1.651380000000000070e+00 2.790420000000000122e+00 5.756330000000000169e+00 1.187000000000000000e-01 3.479169999999999874e+00 7.145599999999999730e-01 1.729619999999999935e+00 4.395730000000000359e+00 3.233909999999999840e+00 3.219869999999999788e+00 5.388480000000000381e+00 5.640270000000000117e+00 1.656060000000000088e+00 6.322460000000000413e+00 7.050899999999999945e-01 3.259069999999999911e+00 7.100100000000000300e+00 3.092099999999999849e+00 -1.303630000000000067e+00 8.050819999999999865e+00 5.350550000000000139e+00 -1.396919999999999940e+00 7.915879999999999583e+00 6.429999999999999605e-02 1.560699999999999865e-01 8.878030000000000754e+00 2.660320000000000018e+00 1.665699999999999958e+00 9.774549999999999628e+00 5.093849999999999767e+00 8.143000000000000238e-02 5.386280000000000179e+00 7.476869999999999905e+00 3.097539999999999960e+00 3.468739999999999934e+00 2.482670000000000154e+00 -1.384430000000000049e+00 4.473810000000000286e+00 4.932050000000000267e+00 3.110580000000000123e+00 5.296590000000000131e+00 6.051000000000000129e-02 -1.268780000000000019e+00 6.061029999999999696e+00 2.291279999999999983e+00 1.582800000000000040e-01 7.117630000000000123e+00 4.964940000000000353e+00 3.079839999999999911e+00 7.756000000000000394e-02 9.123000000000000553e-02 3.345260000000000122e+00 8.834509999999999863e+00 2.563180000000000014e+00 -1.347630000000000106e+00 9.795889999999999986e+00 5.207639999999999603e+00 4.602570000000000050e+00 2.744549999999999823e+00 1.137999999999999949e-02 1.130599999999999938e-01 3.547600000000000087e+00 2.494479999999999809e+00 1.634660000000000002e+00 4.559370000000000367e+00 5.108579999999999899e+00 1.755249999999999977e+00 6.166199999999999903e+00 2.478110000000000035e+00 3.242750000000000021e+00 7.270579999999999821e+00 4.981489999999999974e+00
1.482159999999999922e+00 8.069199999999999706e-01 6.289200000000000346e-01 2.907880000000000020e+00 1.873690000000000078e+00 3.184260000000000090e+00 4.345209999999999795e+00 2.815819999999999990e+00 5.755519999999999747e+00 2.956939999999999902e+00 3.541009999999999991e+00 6.178099999999999703e-01 4.410090000000000288e+00 4.583499999999999908e+00 3.177900000000000169e+00 5.859390000000000320e+00 5.502810000000000201e+00 5.726300000000000168e+00 9.797180000000000888e+00 6.552979999999999805e+00 7.910899999999999599e-01 5.914069999999999716e+00 7.246999999999999886e+00 3.099990000000000023e+00 7.326740000000000030e+00 8.205389999999999517e+00 5.676720000000000432e+00 4.521399999999999864e+00 1.040529999999999955e+00 6.636400000000000077e-01 5.971770000000000245e+00 1.889359999999999928e+00 3.208140000000000214e+00 7.411369999999999791e+00 2.835599999999999898e+00 5.767389999999999795e+00 6.048540000000000028e+00 3.502219999999999889e+00 6.830000000000000515e-01 7.468890000000000029e+00 4.599000000000000199e+00 3.193989999999999885e+00 8.894059999999999633e+00 5.539349999999999774e+00 5.747049999999999770e+00 8.194409999999999528e+00 6.591440000000000410e+00 8.169600000000000195e-01 8.949020000000000863e+00 7.359720000000000262e+00 3.307339999999999947e+00 1.042130000000000045e+01 8.253019999999999357e+00 5.617799999999999905e+00 1.027529999999999966e+01 2.914359999999999840e+00 7.667379999999999640e+00 5.922320000000000029e+00 9.068080000000000140e+00 2.543159999999999865e+00 7.352949999999999875e+00 1.002350000000000030e+01 5.101840000000000153e+00 5.782890000000000086e+00 5.514789999999999637e+00 7.649099999999999788e+00 2.925399999999999778e+00 3.646900000000000031e+00 2.540719999999999867e+00 4.356049999999999756e+00 4.605990000000000251e+00 5.102260000000000240e+00 7.220229999999999926e+00 8.079420000000000712e+00 7.517739999999999867e+00 1.039789999999999992e+01 6.384030000000000094e+00 2.592010000000000147e+00 5.844590000000000174e+00 7.287169999999999703e+00 5.054789999999999672e+00 7.402260000000000062e+00 2.936220000000000052e+00 7.666330000000000311e+00 4.474890000000000256e+00 9.896099999999999897e-01 2.585310000000000219e+00 1.040070000000000050e+01 1.005320000000000036e+01 5.156049999999999578e+00 8.862170000000000769e+00 5.648390000000000022e+00 7.658960000000000434e+00 5.969920000000000115e+00 3.711129999999999818e+00 2.541370000000000129e+00 7.412810000000000343e+00 4.616880000000000095e+00 5.114230000000000054e+00 7.535960000000000214e+00 6.400050000000000239e+00 2.620210000000000150e+00 8.921680000000000277e+00 7.344640000000000057e+00 5.170950000000000379e+00
1.517149999999999999e+00 8.092000000000000304e-01 5.474499999999999922e-01 2.989700000000000024e+00 1.896679999999999922e+00 3.174040000000000195e+00 4.581000000000000405e+00 2.991810000000000080e+00 5.593720000000000248e+00 3.164390000000000036e+00 3.566580000000000084e+00 6.710399999999999698e-01 4.394269999999999676e+00 4.673610000000000042e+00 3.169230000000000214e+00 -2.340000000000000066e-02 5.499699999999999811e+00 5.772140000000000271e+00 4.799909999999999677e+00 6.195780000000000065e+00 6.240099999999999536e-01 -2.043999999999999984e-02 7.181280000000000108e+00 3.042530000000000179e+00 1.500920000000000032e+00 8.317030000000000811e+00 5.480019999999999669e+00 4.548479999999999634e+00 8.289299999999999446e-01 6.974500000000000144e-01 -9.490000000000000172e-03 1.980059999999999931e+00 3.136969999999999814e+00 1.450169999999999959e+00 3.042569999999999997e+00 5.611970000000000347e+00 1.893999999999999850e-02 3.330119999999999969e+00 7.374699999999999589e-01 1.637969999999999926e+00 4.538759999999999906e+00 3.174739999999999895e+00 3.090930000000000177e+00 5.602719999999999700e+00 5.650830000000000020e+00 2.022930000000000117e+00 6.459380000000000344e+00 7.225599999999999801e-01 3.347679999999999989e+00 7.185699999999999754e+00 3.143050000000000122e+00 -1.307549999999999990e+00 8.153909999999999769e+00 5.447440000000000282e+00 -1.263430000000000053e+00 7.854610000000000092e+00 4.642000000000000293e-02 9.328999999999999793e-02 8.843690000000000495e+00 2.453030000000000044e+00 3.108779999999999877e+00 2.133300000000000196e+00 5.013860000000000205e+00 1.650600000000000067e+00 2.759149999999999991e+00 4.735999999999999932e-02 2.957879999999999843e+00 3.589690000000000047e+00 2.515010000000000190e+00 4.513230000000000075e+00 4.686510000000000176e+00 4.974649999999999572e+00 1.995290000000000008e+00 8.273550000000000182e+00 7.331800000000000317e+00 4.552699999999999747e+00 6.314479999999999649e+00 2.298210000000000086e+00 3.520000000000000125e-03 7.227999999999999758e+00 4.845069999999999766e+00 1.596179999999999932e+00 3.147539999999999782e+00 7.333289999999999864e+00 3.178170000000000162e+00 8.910119999999999152e+00 2.478190000000000115e+00 -1.472890000000000033e+00 9.881990000000000052e+00 4.971599999999999575e+00 3.272920000000000051e+00 5.538269999999999804e+00 7.432240000000000180e+00 -6.636999999999999844e-02 3.669130000000000003e+00 2.615380000000000038e+00 1.541150000000000020e+00 4.665020000000000167e+00 5.057540000000000369e+00 1.500110000000000054e+00 6.230859999999999843e+00 2.325050000000000061e+00 2.984729999999999883e+00 7.350120000000000431e+00 4.998099999999999987e+00
1.518410000000000037e+00 7.208400000000000363e-01 6.843700000000000339e-01 3.238999999999999879e+00 1.800259999999999971e+00 3.189909999999999801e+00 4.699709999999999610e+00 2.690719999999999779e+00 5.755799999999999805e+00 3.195009999999999906e+00 3.504179999999999851e+00 6.778600000000000181e-01 4.749439999999999884e+00 4.484280000000000044e+00 3.244800000000000129e+00 -3.572000000000000175e-02 5.493260000000000254e+00 5.934499999999999886e+00 4.241310000000000358e+00 6.550239999999999618e+00 7.574600000000000222e-01 1.535000000000000080e-02 7.200990000000000002e+00 3.288899999999999935e+00 1.636009999999999964e+00 8.229990000000000805e+00 5.891530000000000378e+00 4.613699999999999690e+00 8.552600000000000202e-01 6.915599999999999525e-01 1.167900000000000049e-01 1.741500000000000048e+00 3.189020000000000188e+00 1.656819999999999959e+00 2.663920000000000066e+00 5.703219999999999956e+00 6.112999999999999684e-02 3.353720000000000034e+00 7.314000000000000501e-01 1.563940000000000108e+00 4.492609999999999992e+00 3.239230000000000054e+00 3.099369999999999958e+00 5.435979999999999812e+00 5.719089999999999563e+00 1.860530000000000017e+00 6.315330000000000332e+00 7.020899999999999919e-01 3.113910000000000178e+00 7.159779999999999589e+00 3.263339999999999907e+00 -1.503970000000000029e+00 8.113910000000000622e+00 5.639829999999999899e+00 4.525739999999999874e+00 2.761289999999999800e+00 7.692379999999999995e+00 1.722699999999999898e+00 8.835699999999999665e-01 2.535649999999999959e+00 3.218560000000000088e+00 1.802999999999999936e+00 5.062339999999999840e+00 1.636239999999999917e+00 2.523080000000000211e+00 3.923999999999999710e-02 3.114020000000000010e+00 3.625630000000000130e+00 2.587549999999999795e+00 -1.536880000000000024e+00 4.476840000000000153e+00 5.239589999999999748e+00 1.658279999999999976e+00 7.867309999999999803e+00 7.665700000000000180e+00 4.638119999999999798e+00 6.289310000000000400e+00 2.692169999999999952e+00 1.059699999999999948e-01 7.239939999999999820e+00 5.158640000000000114e+00 7.825000000000000011e-02 1.065544000000000047e+01 7.552109999999999879e+00 4.764750000000000263e+00 8.836500000000000465e-01 2.500119999999999898e+00 5.627000000000000057e-02 1.756820000000000048e+00 5.064759999999999707e+00 4.743769999999999598e+00 2.632750000000000146e+00 1.813000000000000028e-02 -8.011000000000000065e-02 3.565479999999999983e+00 2.544740000000000002e+00 1.584340000000000082e+00 4.468180000000000263e+00 5.127040000000000042e+00 1.562289999999999957e+00 6.274790000000000312e+00 2.597370000000000179e+00 3.127390000000000114e+00 7.202270000000000394e+00 5.128490000000000215e+00
1.482159999999999922e+00 8.069199999999999706e-01 6.289200000000000346e-01 2.907880000000000020e+00 1.873690000000000078e+00 3.184260000000000090e+00 4.345209999999999795e+00 2.815819999999999990e+00 5.755519999999999747e+00 2.956939999999999902e+00 3.541009999999999991e+00 6.178099999999999703e-01 4.410090000000000288e+00 4.583499999999999908e+00 3.177900000000000169e+00 5.859390000000000320e+00 5.502810000000000201e+00 5.726300000000000168e+00 9.797180000000000888e+00 6.552979999999999805e+00 7.910899999999999599e-01 5.914069999999999716e+00 7.246999999999999886e+00 3.099990000000000023e+00 7.326740000000000030e+00 8.205389999999999517e+00 5.676720000000000432e+00 4.521399999999999864e+00 1.040529999999999955e+00 6.636400000000000077e-01 5.971770000000000245e+00 1.889359999999999928e+00 3.208140000000000214e+00 7.411369999999999791e+00 2.835599999999999898e+00 5.767389999999999795e+00 6.048540000000000028e+00 3.502219999999999889e+00 6.830000000000000515e-01 7.468890000000000029e+00 4.599000000000000199e+00 3.193989999999999885e+00 8.894059999999999633e+00 5.539349999999999774e+00 5.747049999999999770e+00 8.194409999999999528e+00 6.591440000000000410e+00 8.169600000000000195e-01 8.949020000000000863e+00 7.359720000000000262e+00 3.307339999999999947e+00 1.042130000000000045e+01 8.253019999999999357e+00 5.617799999999999905e+00 1.027529999999999966e+01 2.914359999999999840e+00 7.667379999999999640e+00 5.922320000000000029e+00 9.068080000000000140e+00 2.543159999999999865e+00 7.352949999999999875e+00 1.002350000000000030e+01 5.101840000000000153e+00 5.782890000000000086e+00 5.514789999999999637e+00 7.649099999999999788e+00 2.925399999999999778e+00 3.646900000000000031e+00 2.540719999999999867e+00 4.356049999999999756e+00 4.605990000000000251e+00 5.102260000000000240e+00 7.220229999999999926e+00 8.079420000000000712e+00 7.517739999999999867e+00 1.039789999999999992e+01 6.384030000000000094e+00 2.592010000000000147e+00 5.844590000000000174e+00 7.287169999999999703e+00 5.054789999999999672e+00 7.402260000000000062e+00 2.936220000000000052e+00 7.666330000000000311e+00 4.474890000000000256e+00 9.896099999999999897e-01 2.585310000000000219e+00 1.040070000000000050e+01 1.005320000000000036e+01 5.156049999999999578e+00 8.862170000000000769e+00 5.648390000000000022e+00 7.658960000000000434e+00 5.969920000000000115e+00 3.711129999999999818e+00 2.541370000000000129e+00 7.412810000000000343e+00 4.616880000000000095e+00 5.114230000000000054e+00 7.535960000000000214e+00 6.400050000000000239e+00 2.620210000000000150e+00 8.921680000000000277e+00 7.344640000000000057e+00 5.170950000000000379e+00
1.691670000000000007e+00 8.823800000000000532e-01 6.380500000000000060e-01 3.173939999999999984e+00 1.938879999999999937e+00 3.239139999999999908e+00 4.756770000000000387e+00 2.873520000000000074e+00 5.878199999999999648e+00 3.085960000000000036e+00 3.677750000000000075e+00 5.566100000000000492e-01 4.722789999999999822e+00 4.684840000000000337e+00 3.289379999999999971e+00 -5.661999999999999672e-02 5.705630000000000202e+00 5.741380000000000372e+00 4.411810000000000009e+00 6.558510000000000062e+00 7.949100000000000055e-01 -4.302999999999999881e-02 7.321509999999999962e+00 3.203980000000000050e+00 1.565819999999999990e+00 8.403259999999999508e+00 5.706509999999999749e+00 4.564239999999999853e+00 9.775899999999999590e-01 6.892399999999999638e-01 2.460000000000000034e-02 1.847469999999999946e+00 3.240540000000000198e+00 1.603350000000000053e+00 2.866429999999999811e+00 5.841730000000000089e+00 -1.174899999999999972e-01 3.287199999999999900e+00 6.286100000000000021e-01 1.578340000000000076e+00 4.573210000000000441e+00 3.320250000000000146e+00 3.196909999999999918e+00 5.714059999999999917e+00 5.835530000000000328e+00 1.891729999999999912e+00 6.612980000000000302e+00 7.924499999999999877e-01 3.055460000000000065e+00 7.419749999999999623e+00 3.191349999999999909e+00 -1.574440000000000062e+00 8.327329999999999899e+00 5.400000000000000355e+00 4.636700000000000266e+00 8.207369999999999166e+00 5.170999999999999902e-02 1.574570000000000025e+00 9.595200000000000395e-01 2.535860000000000003e+00 1.430180000000000007e+00 1.010798999999999914e+01 5.116530000000000022e+00 -9.629999999999999671e-02 5.595299999999999940e+00 7.645050000000000345e+00 3.105550000000000033e+00 3.660629999999999828e+00 2.642689999999999984e+00 -1.571550000000000002e+00 4.712729999999999642e+00 5.214070000000000427e+00 1.541690000000000005e+00 8.398559999999999803e+00 7.702989999999999782e+00 -1.558079999999999909e+00 6.430080000000000240e+00 2.687959999999999905e+00 1.820000000000000090e-02 7.425650000000000084e+00 5.145940000000000403e+00 1.561660000000000048e+00 2.928329999999999878e+00 7.751179999999999737e+00 4.566609999999999836e+00 1.006450000000000067e+00 2.487839999999999829e+00 -1.542229999999999990e+00 1.014409000000000027e+01 5.244580000000000020e+00 3.033269999999999911e+00 5.692969999999999864e+00 7.737680000000000113e+00 1.153000000000000032e-02 3.679870000000000196e+00 2.646679999999999922e+00 1.578089999999999993e+00 4.620980000000000310e+00 5.215989999999999682e+00 1.533349999999999991e+00 6.375359999999999694e+00 2.614469999999999850e+00 3.076600000000000001e+00 7.447250000000000369e+00 5.182100000000000151e+00