-2.971719999999999917e-01 9.043849999999999945e-01 1.070600000000000024e-02 -1.315379999999999883e-01 -1.297806000000000015e+00 -1.074133999999999922e+00 7.322499999999999565e-01 3.914210000000000189e-01 -6.789549999999999752e-01 4.331999999999999740e-01 1.475039999999999907e+00 -1.376380000000000103e-01 -6.615170000000000217e-01 9.634359999999999591e-01 -8.899240000000000483e-01 -3.021579999999999822e-01 -1.207369999999999971e-01 -3.672579999999999734e-01 -5.595409999999999551e-01 -8.829800000000000149e-02 4.212739999999999818e-01 -7.505899999999999794e-01 -2.102778999999999954e+00 -2.090770000000000128e-01 4.880899999999999822e-02 -1.354473000000000038e+00 -6.639709999999999779e-01 -1.959065000000000056e+00 2.329098000000000113e+00 -1.366918000000000077e+00 -4.456930000000000058e-01 -8.574180000000000135e-01 -1.097450000000000037e+00 -2.425170000000000103e-01 6.714090000000000336e-01 3.719140000000000224e-01 5.456210000000000226e-01 5.722310000000000452e-01 3.288320000000000132e-01 -6.402970000000000050e-01 4.315470000000000139e-01 1.023922999999999917e+00 -1.027212000000000014e+00 -2.095899999999999846e-02 1.114619999999999944e+00 -1.404140000000000110e-01 -5.557849999999999735e-01 -1.375890999999999975e+00 -1.420019999999999893e-01 -1.377077000000000107e+00 2.811884000000000050e+00 -2.742299999999999946e-02 -1.331700000000000106e-01 4.640870000000000273e-01 4.121420000000000083e-01 2.493009999999999948e-01 3.469329999999999914e-01 -5.431139999999999857e-01 3.098980000000000068e-01 -1.626355999999999913e+00 2.154349999999999876e-01 1.868141999999999969e+00 1.356122000000000050e+00 1.840260999999999925e+00 -2.793776999999999955e+00 -8.855169999999999986e-01 1.918285999999999936e+00 3.685260000000000202e-01 1.333244000000000096e+00 1.102122999999999964e+00 2.163920000000000010e-01 4.800000000000000100e-02 -8.785389999999999588e-01 -1.360329999999999873e-01 1.823670000000000013e-01 -2.796910000000000229e-01 5.106900000000000328e-02 1.982349999999999945e-01 -1.671051000000000064e+00 1.331880000000000008e-01 9.676000000000000573e-03 1.071490000000000054e+00 8.179440000000000044e-01 3.671619999999999884e-01 6.949020000000000197e-01 -5.843110000000000248e-01 -1.543100000000000027e-01 -8.343789999999999818e-01 3.369558000000000053e+00 1.813049999999999939e-01 9.231580000000000341e-01 -1.620449999999999946e-01 1.680669999999999942e-01 7.667239999999999611e-01 -2.111368000000000134e+00 3.735569999999999724e-01 2.218811000000000089e+00 -1.401877999999999957e+00 -7.159799999999999498e-01 -1.342098999999999931e+00 -3.793579999999999730e-01 2.440109000000000083e+00 -1.527798999999999907e+00 5.906000000000000139e-02 -1.890573999999999977e+00 -1.048769000000000062e+00 -6.888659999999999783e-01 -6.160999999999999810e-01 -7.280670000000000197e-01 1.293609999999999927e+00 7.518989999999999840e-01 -3.432140000000000191e-01 5.303999999999999687e-02 6.216810000000000391e-01 -1.315850000000000075e-01 -1.100089000000000095e+00 -2.476800000000000113e-01 6.732129999999999503e-01 -2.089325999999999794e+00 -1.367029999999999967e+00 3.782305000000000028e+00 1.803800000000000070e+00 1.399670000000000081e-01 1.575018999999999947e+00 1.566000999999999976e+00 -8.039290000000000047e-01 2.010209000000000135e+00 -1.846924000000000010e+00 1.071682999999999941e+00 1.645659999999999901e-01 4.229600000000000026e-01 -3.805910000000000126e-01 -1.755269999999999886e-01 -3.039490999999999943e+00 5.188120000000000509e-01 -5.828410000000000535e-01 1.787916999999999978e+00 3.850569999999999826e-01 -3.714710000000000178e+00 2.132995999999999892e+00 -4.918319999999999914e-01
5.963600000000000151e-02 -4.755369999999999875e-01 1.933189999999999908e-01 -1.007466999999999890e+00 -1.116581999999999963e+00 -1.620355999999999908e+00 -6.729000000000000259e-02 2.119476000000000138e+00 4.455129999999999924e-01 1.877081999999999917e+00 3.697030000000000038e-01 9.767000000000000126e-01 -9.419410000000000283e-01 -5.169799999999999951e-01 -1.111349999999999977e-01 -1.326508999999999938e+00 9.669899999999999329e-02 -6.437420000000000364e-01 1.405402000000000040e+00 -1.690374999999999961e+00 -2.648829999999999796e-01 1.456080000000000041e+00 -2.027874000000000176e+00 -5.450289999999999857e-01 -5.865860000000000518e-01 -1.392948999999999993e+00 8.849200000000000399e-01 -1.090829000000000049e+00 1.880157000000000078e+00 -2.728749999999999787e-01 -5.994900000000000229e-02 -1.180168000000000106e+00 1.134109000000000034e+00 -9.335699999999999554e-02 -2.832904999999999784e+00 9.863659999999999650e-01 -9.620800000000000185e-02 -8.060410000000000075e-01 2.806520000000000126e-01 8.795279999999999765e-01 2.137637999999999927e+00 2.026463999999999821e+00 -2.542752000000000123e+00 -5.903519999999999879e-01 -1.014415999999999984e+00 -1.179824999999999902e+00 1.930479999999999974e-01 -3.126425999999999927e+00 -1.650805000000000078e+00 -3.746583999999999914e+00 1.017053999999999903e+00 -6.537180000000000213e-01 -1.748280999999999974e+00 1.594916000000000000e+00 -3.205899999999999722e-02 1.421181999999999945e+00 -9.818000000000000060e-01 1.093056000000000028e+00 2.231755000000000155e+00 -3.036010000000000097e+00 -4.161020000000000274e-01 2.599635999999999836e+00 1.280429000000000039e+00 1.725103000000000053e+00 -1.232607000000000008e+00 -1.200282999999999989e+00 3.988506000000000107e+00 1.889105999999999952e+00 8.927289999999999948e-01 -1.316308999999999951e+00 -5.828809999999999825e-01 2.046321999999999974e+00 1.361729999999999885e-01 -7.838420000000000387e-01 5.352900000000000019e-02 -7.645710000000000006e-01 2.643215000000000092e+00 -2.985999999999999766e-01 1.881512999999999991e+00 4.945320000000000271e-01 -7.629960000000000075e-01 1.707969000000000070e+00 -6.832319999999999505e-01 9.373399999999999788e-02 -6.878710000000000102e-01 3.130778999999999979e+00 -3.984460000000000224e-01 -1.004970000000000030e-01 5.137859999999999649e-01 -7.436599999999999877e-01 -2.075739000000000001e+00 -5.675499999999999989e-02 1.353199999999999958e-01 -1.204206000000000110e+00 -9.883180000000000298e-01 3.478769999999999918e-01 9.393930000000000335e-01 -1.644463000000000008e+00 4.540919999999999956e-01 -1.337037999999999949e+00 -3.631199999999999706e-02 8.599368999999999374e+00 -8.450929999999999831e-01 -2.457759999999999945e-01 -4.190061000000000035e+00 6.052799999999999847e-02 1.472130000000000105e-01 5.034840000000000426e-01 2.064303000000000221e+00 -3.225000000000000002e-03 5.006420000000000314e-01 3.033243000000000134e+00 4.853040000000000131e-01 -6.067169999999999508e-01 3.177320000000000144e-01 -6.593329999999999469e-01 2.032811999999999841e+00 -1.815559999999999952e-01 5.855679999999999774e-01 -3.381069999999999909e-01 7.185304999999999609e+00 4.714051999999999687e+00 -1.230583999999999900e+00 -1.868891999999999998e+00 1.688075999999999910e+00 -2.583200000000000079e-02 -4.413349999999999773e-01 -1.056872999999999951e+00 4.403859999999999997e-01 1.502680000000000127e-01 5.493639999999999635e-01 -9.562349999999999461e-01 -4.957219999999999960e-01 -7.207659999999999734e+00 -1.957165999999999961e+00 6.059379999999999766e-01 -4.371519999999999850e-01 -1.334054000000000073e+00 -7.502531000000000283e+00 3.852768000000000193e+00 -1.261325000000000029e+00
8.612239999999999895e-01 8.693619999999999681e-01 1.181486999999999954e+00 2.023813000000000084e+00 -2.547073000000000143e+00 -1.285304000000000002e+00 -2.396510000000000029e-01 5.361999999999999579e-03 4.866820000000000035e-01 1.024488999999999983e+00 2.748766999999999960e+00 -7.884900000000000242e-02 -1.188900000000000026e-02 -2.479909999999999892e-01 -1.285566999999999904e+00 -3.528919999999999835e-01 -3.452399999999999913e-02 6.611900000000000555e-01 -1.200210999999999917e+00 1.185200000000000004e-01 1.581425000000000081e+00 1.897677000000000058e+00 -1.247573000000000043e+00 -2.491889999999999938e-01 1.751903999999999906e+00 3.930000000000000160e-02 -3.756860000000000199e-01 -8.277740000000000098e-01 1.016383000000000036e+00 -1.839709999999999956e-01 8.189009999999999900e-01 -1.419143000000000043e+00 -1.016755000000000075e+00 -1.199229000000000100e+00 1.733319999999999972e+00 -1.784167999999999976e+00 -2.367039999999999977e-01 -9.233470000000000288e-01 1.227435999999999972e+00 9.287400000000000100e-01 1.019160000000000066e-01 -9.845490000000000075e-01 -5.863620000000000498e-01 -4.921050000000000146e-01 4.816159999999999886e-01 -5.861199999999999743e-01 1.725810000000000122e-01 1.387309999999999932e-01 4.864620000000000055e-01 -8.466559999999999642e-01 1.412314999999999987e+00 -2.363520000000000065e-01 -5.798799999999999788e-02 -4.831429999999999891e-01 7.307600000000000207e-02 -6.071010000000000018e-01 -8.628270000000000106e-01 -2.111400000000000082e-02 -1.217419000000000029e+00 -1.028056999999999999e+00 8.932820000000000205e-01 1.214358999999999966e+00 1.536240000000000050e+00 -1.171537000000000051e+00 -3.572199999999999681e-02 2.974200000000000177e-01 -7.959939999999999793e-01 8.427390000000000159e-01 1.077056999999999931e+00 8.579200000000000159e-01 -8.376470000000000304e-01 8.642760000000000442e-01 -6.310100000000000431e-02 5.965160000000000462e-01 8.351030000000000397e-01 -2.126429999999999987e-01 8.113099999999999479e-02 -1.943900000000000142e-02 -3.698790000000000133e-01 -5.332050000000000400e-01 -1.462190000000000101e+00 -1.088057999999999970e+00 -3.048819999999999864e-01 -6.479540000000000299e-01 -4.351539999999999853e-01 7.250100000000000433e-01 -5.199999999999999544e-04 -4.291099999999999776e-02 -3.547600000000000198e-01 -4.044550000000000090e-01 1.979940000000000033e-01 -3.408140000000000058e-01 -1.441905999999999910e+00 1.006780000000000036e-01 1.024672000000000027e+00 4.038800000000000029e-02 1.503710000000000047e-01 1.010129000000000055e+00 1.762070000000000025e-01 1.592821000000000042e+00 1.317814000000000041e+00 2.628455999999999904e+00 1.244828999999999963e+00 -3.351810000000000067e-01 -4.622290999999999705e+00 -2.503179999999999850e-01 -3.098230000000000151e-01 3.545920000000000183e-01 -2.021027999999999825e+00 4.932679999999999843e-01 8.245519999999999516e-01 2.862640000000000184e-01 -1.516208999999999918e+00 1.589329999999999909e-01 -1.096994999999999942e+00 -7.221319999999999961e-01 -1.782160000000000133e-01 -1.743338999999999972e+00 2.008379999999999888e-01 -3.623569999999999847e-01 2.008497000000000199e+00 1.284494999999999942e+00 5.043699999999999850e-01 -3.107999999999999999e-02 -1.058564000000000060e+00 2.575549999999999784e-01 -3.238409999999999900e-01 6.073400000000000326e-02 2.445799999999999919e-01 -9.470549999999999802e-01 9.052200000000000246e-01 1.424199999999999945e-02 -2.616910000000000069e-01 -3.229359000000000091e+00 1.554804000000000075e+00 1.051102999999999899e+00 1.718112000000000084e+00 -3.941350000000000131e-01 -1.897119999999999918e+00 9.386729999999999796e-01 6.118710000000000537e-01
6.377700000000000036e-02 1.435971000000000108e+00 2.057650000000000035e-01 -1.027581999999999995e+00 -1.158627999999999991e+00 -8.087320000000000064e-01 -1.477040000000000020e-01 -4.036279999999999868e-01 -3.328630000000000200e-01 1.824590000000000101e-01 1.469910000000000105e-01 2.077940000000000065e-01 2.929590000000000249e-01 1.981735999999999942e+00 8.595559999999999867e-01 9.382239999999999469e-01 1.394374999999999920e+00 -8.665730000000000377e-01 2.283926000000000123e+00 -8.867610000000000214e-01 -3.117590000000000083e-01 -1.122937000000000074e+00 -1.119383999999999935e+00 1.023527999999999993e+00 7.858570000000000277e-01 -1.054154000000000035e+00 2.260600000000000109e-01 -6.243360000000000021e-01 1.520648000000000000e+00 -1.420170000000000043e-01 2.156267999999999851e+00 -1.037255000000000038e+00 -3.453849999999999976e-01 1.256051000000000029e+00 -6.106380000000000141e-01 1.576581000000000010e+00 1.869823000000000013e+00 -1.761560999999999932e+00 -4.979689999999999950e-01 2.091489000000000154e+00 -1.202582000000000040e+00 9.401180000000000092e-01 -5.258800000000000141e-01 4.235030000000000183e-01 -1.545460999999999974e+00 -1.210309000000000079e+00 7.141300000000000425e-02 -1.699140000000000095e-01 -5.391040000000000276e-01 -1.488018000000000063e+00 1.949429000000000078e+00 -5.879990000000000494e-01 -4.469339999999999979e-01 -1.495913999999999966e+00 -6.160269999999999913e-01 -1.059517000000000042e+00 4.832839999999999914e-01 -1.444812999999999903e+00 1.226931999999999912e+00 -1.733173000000000075e+00 1.529300000000000104e-01 1.736145999999999967e+00 7.923200000000000243e-01 1.831990000000000007e+00 -1.409650000000000070e-01 -1.552084999999999937e+00 2.041821999999999804e+00 1.199726999999999988e+00 1.073952000000000018e+00 -1.127674000000000065e+00 5.848809999999999842e-01 -3.070450000000000124e-01 -4.386379999999999724e-01 1.631761000000000017e+00 7.190370000000000372e-01 -9.357330000000000370e-01 2.680759999999999810e-01 -6.340500000000000025e-01 -1.002159999999999940e+00 8.602200000000000124e-02 1.075271000000000088e+00 -1.439380000000000104e+00 5.043699999999999850e-01 -9.206109999999999571e-01 -2.753680000000000017e-01 -1.415138999999999925e+00 1.014404000000000083e+00 3.031449999999999978e-01 7.085299999999999931e-02 1.555787999999999949e+00 -8.701769999999999783e-01 6.676199999999999912e-01 -1.514553999999999956e+00 5.747250000000000414e-01 -1.490259999999999918e-01 -2.023060000000000136e-01 1.591131999999999991e+00 1.696671000000000040e+00 7.433920000000000528e-01 4.641989999999999728e-01 -5.983549999999999702e-01 2.472982000000000014e+00 -2.389199999999999935e-01 -6.549509999999999499e-01 -2.738513999999999893e+00 -7.676110000000000433e-01 7.208069999999999755e-01 3.825959999999999916e-01 2.245353000000000154e+00 3.339713999999999849e+00 -8.535439999999999694e-01 -2.068800000000000153e-02 -1.861393999999999993e+00 5.464170000000000416e-01 9.244149999999999867e-01 -1.590330999999999939e+00 2.928549999999999764e-01 -1.105277000000000065e+00 -1.509444000000000008e+00 -9.518929999999999891e-01 2.829018000000000033e+00 1.120754999999999946e+00 9.529200000000000170e-02 -1.846762000000000015e+00 1.091320999999999986e+00 -1.167581999999999898e+00 -2.479879999999999862e-01 1.390519000000000061e+00 -4.511799999999999838e-02 -3.530929999999999902e-01 7.156919999999999948e-01 5.708010000000000028e-01 -7.130969999999999809e-01 -4.383169999999999789e+00 -3.181700000000000084e-01 -1.408080999999999916e+00 -2.462509999999999977e-01 8.213270000000000293e-01 -4.242223000000000077e+00 -2.484200000000000019e-01 -1.733139999999999958e-01
-8.792899999999999328e-02 7.510480000000000489e-01 2.285000000000000139e-03 -5.359530000000000127e-01 -2.155949999999999811e+00 1.077000000000000049e-03 2.227290000000000103e-01 -3.192360000000000197e-01 8.928099999999999925e-02 1.221346999999999960e+00 2.198913999999999813e+00 -8.290699999999999459e-02 7.937900000000000511e-02 -1.152500000000000052e-02 -1.915050000000000086e-01 -7.120500000000000440e-02 -3.059180000000000232e-01 -6.496499999999999497e-02 1.561240000000000128e-01 2.225189999999999946e-01 -2.404900000000000093e-01 1.122652999999999901e+00 -2.420462999999999809e+00 -5.618700000000000083e-02 -4.937719999999999887e-01 -2.464349999999999874e-01 1.945320000000000105e-01 -1.124254000000000087e+00 1.609027999999999903e+00 2.605979999999999963e-01 3.337390000000000079e-01 9.736499999999999322e-02 7.718899999999999373e-02 3.233480000000000243e-01 -7.715889999999999693e-01 5.323550000000000226e-01 1.149000000000000021e-02 -6.065070000000000183e-01 -6.401170000000000471e-01 -1.671249999999999958e-01 -6.860900000000000332e-02 6.275979999999999892e-01 -1.112869999999999970e-01 7.059100000000000097e-02 -6.560930000000000373e-01 -2.328786000000000023e+00 -1.087102999999999930e+00 -1.975897999999999932e+00 -2.433168000000000220e+00 -9.742469999999999741e-01 2.162675000000000125e+00 -3.770359999999999823e-01 6.192999999999999720e-03 6.042349999999999666e-01 -7.995280000000000165e-01 1.516599999999999893e-01 -7.111180000000000279e-01 -5.054849999999999621e-01 2.687072000000000127e+00 -1.549585999999999908e+00 -5.244400000000000173e-01 2.011519999999999975e+00 2.188041000000000125e+00 1.980472999999999928e+00 -1.125634999999999941e+00 -1.918129999999999891e+00 2.144995000000000207e+00 -1.318793000000000104e+00 2.012169999999999792e+00 3.501909999999999745e-01 4.230829999999999869e-01 2.156599999999999837e-02 5.623179999999999845e-01 5.823380000000000223e-01 1.177969999999999989e-01 -9.857949999999999768e-01 -3.673960000000000004e-01 -1.527270000000000016e-01 -7.534999999999999476e-01 -2.949800000000000200e-01 3.259969999999999812e-01 -2.644929999999999781e-01 2.025959999999999983e-01 -2.540149999999999908e-01 7.939100000000000323e-02 -3.219099999999999739e-01 1.525090000000000057e-01 -2.224399999999999988e-02 6.347749999999999782e-01 -1.898839999999999972e-01 -2.262740000000000029e-01 9.074160000000000004e-01 1.325000000000000006e-03 1.574327000000000032e+00 -3.053989999999999760e-01 8.360199999999999576e-02 1.004488000000000048e+00 -2.348119999999999929e-01 3.465440000000000187e-01 2.974720000000000142e-01 2.154560000000000086e-01 6.122417000000000442e+00 2.611269999999999980e-01 9.338000000000000467e-02 -6.243678000000000061e+00 -5.754999999999999699e-03 -5.810900000000000093e-02 -7.145200000000000162e-02 -1.772980000000000111e-01 1.498960999999999988e+00 8.358300000000000451e-02 2.503190000000000137e-01 -2.659779999999999922e-01 1.191109999999999947e-01 8.404599999999999571e-02 -6.004190000000000360e-01 -3.059100000000000014e-02 -4.682900000000000257e-02 -6.628699999999999593e-01 -5.390299999999999953e-02 7.141958999999999946e+00 3.899484999999999868e+00 1.617730000000000001e-01 1.684219999999999884e-01 5.543399999999999717e-02 6.722999999999999809e-03 -2.605799999999999783e-01 3.053300000000000111e-02 -1.117689999999999934e-01 -4.941199999999999759e-02 3.948300000000000143e-01 -5.892519999999999980e-01 6.738700000000000245e-02 -7.655166999999999611e+00 -3.834650000000000003e-01 -2.279000000000000210e-03 -4.304640000000000133e-01 -1.434040000000000037e-01 -7.083300000000000374e+00 3.865314999999999834e+00 1.615499999999999922e-02
-8.783330000000000304e-01 -4.871699999999999919e-01 -1.153153000000000095e+00 -2.165496000000000087e+00 -1.562855000000000105e+00 -1.248035999999999923e+00 -6.360500000000000043e-01 5.112200000000000077e-02 -7.909299999999999664e-02 5.095709999999999962e-01 1.757419999999999982e+00 1.415949999999999986e-01 -1.021839999999999971e-01 5.332249999999999490e-01 -9.567569999999999686e-01 5.921760000000000357e-01 4.204490000000000172e-01 5.704000000000000042e-02 -2.366226999999999858e+00 -2.117361999999999966e+00 -7.148099999999999454e-01 -3.580740000000000034e-01 -1.984127999999999892e+00 -6.921640000000000015e-01 -9.385580000000000034e-01 -8.527949999999999697e-01 -8.154240000000000377e-01 -1.183629000000000042e+00 3.551440000000000152e-01 -4.178470000000000240e-01 -1.627434999999999965e+00 -1.028019000000000016e+00 1.277600000000000124e-01 1.021857999999999933e+00 8.884200000000000430e-02 1.088654999999999928e+00 -1.452099999999999919e-02 6.704149999999999832e-01 -1.263500000000000040e-02 -1.383731999999999962e+00 -2.026199999999999876e-02 6.001109999999999500e-01 1.156199999999999936e-02 -6.707130000000000036e-01 6.101899999999999685e-02 -4.484380000000000033e-01 -4.191710000000000158e-01 -5.834089999999999554e-01 -1.019184000000000090e+00 2.996909999999999852e-01 2.042352000000000167e+00 7.032110000000000305e-01 7.114890000000000381e-01 1.099366000000000065e+00 5.868290000000000450e-01 7.570080000000000142e-01 6.653970000000000162e-01 4.471330000000000027e-01 2.262836000000000070e+00 -1.483543999999999974e+00 1.203090999999999910e+00 1.725376000000000021e+00 1.764628000000000085e+00 2.233985999999999805e+00 -4.832469999999999821e-01 -1.289245999999999892e+00 1.857604999999999951e+00 -1.969718999999999998e+00 1.721978000000000009e+00 4.993219999999999881e-01 -1.183054000000000050e+00 3.403999999999999804e-01 -1.483570000000000055e+00 -4.069999999999999833e-03 -6.529909999999999881e-01 -1.022429000000000032e+00 -1.035409999999999942e-01 -2.554379999999999984e-01 -5.315140000000000420e-01 -2.239405000000000090e+00 -9.777199999999999780e-02 -8.894549999999999956e-01 -5.922770000000000534e-01 -1.719120000000000092e-01 2.146170000000000022e-01 1.833360000000000101e+00 -1.806250000000000078e-01 -6.997240000000000126e-01 7.823039999999999994e-01 5.721990000000000132e-01 1.191273999999999944e+00 6.511249999999999538e-01 2.457910000000000095e-01 1.557971999999999912e+00 4.436950000000000061e-01 -4.629300000000000082e-01 -2.525259999999999727e-01 -3.584959999999999813e-01 -1.402430000000000065e-01 4.333779999999999855e-01 -5.779760000000000453e-01 4.509411000000000058e+00 -1.324869000000000074e+00 -1.350000000000000017e-04 -3.628181000000000100e+00 2.341648999999999869e+00 -2.324599999999999930e-02 7.107440000000000424e-01 1.277309000000000028e+00 1.871823999999999932e+00 -8.604270000000000529e-01 7.270229999999999748e-01 -8.167200000000000015e-01 -2.447489999999999943e-01 9.114400000000000279e-02 -2.942150000000000043e-01 8.229049999999999976e-01 -2.857300000000000118e-02 1.177810000000000024e+00 -1.906220000000000137e-01 3.573453999999999908e+00 2.087870000000000115e+00 -1.154329999999999939e-01 5.082870000000000443e-01 3.359210000000000251e-01 -9.364569999999999839e-01 9.084060000000000468e-01 -2.877779999999999783e-01 2.742390000000000105e-01 -3.830000000000000071e-03 1.488499999999999934e+00 7.001100000000000101e-01 2.810599999999999904e-02 -5.150261000000000422e+00 -3.841620000000000035e-01 7.722869999999999457e-01 9.544179999999999886e-01 1.004928000000000043e+00 -3.932897000000000087e+00 1.966768999999999989e+00 -7.825680000000000414e-01
-2.380082999999999949e+00 5.377709999999999990e-01 -1.756372000000000044e+00 -1.310353000000000101e+00 -2.144098000000000059e+00 -1.441924999999999901e+00 8.579900000000000027e-02 -1.120103000000000071e+00 4.228080000000000171e-01 3.589468999999999799e+00 1.177451999999999943e+00 -7.659510000000000485e-01 -9.638649999999999718e-01 1.745098999999999956e+00 -1.737344999999999917e+00 5.289970000000000505e-01 1.377634999999999943e+00 -1.939354999999999940e+00 -5.870950000000000335e-01 1.966100000000000139e-02 -6.177979999999999583e-01 4.996780000000000110e-01 -2.048830000000000096e-01 4.972530000000000006e-01 9.380900000000000349e-02 -9.528499999999999470e-02 -1.657499999999999946e-02 3.354639999999999844e-01 -9.004199999999999982e-01 -6.973690000000000166e-01 -2.489460999999999924e+00 -4.105849999999999778e-01 -2.048283000000000076e+00 2.096105000000000107e+00 1.684301999999999966e+00 -1.901380000000000070e+00 1.894830000000000125e-01 -7.545399999999999330e-02 -7.419540000000000024e-01 1.338670000000000138e-01 -5.342620000000000147e-01 5.092929999999999957e-01 -3.537410000000000276e-01 -2.787525000000000031e+00 -2.522800000000000042e-01 -2.314248000000000083e+00 -1.066316999999999959e+00 2.165159999999999862e-01 -1.434214000000000100e+00 8.869160000000000377e-01 4.721873999999999683e+00 2.266400000000000012e-02 -2.467588999999999810e+00 4.771520000000000206e-01 -5.444809999999999928e-01 3.131082000000000143e+00 -1.714380000000000015e+00 2.239387999999999934e+00 2.726200000000000151e-02 -2.235558000000000156e+00 -3.204310000000000214e-01 -5.110240000000000338e-01 9.712439999999999962e-01 1.814799000000000051e+00 -3.186919999999999753e-01 -1.626759999999999873e-01 1.153150000000000008e-01 -8.798979999999999579e-01 1.309997999999999996e+00 7.889000000000000179e-03 7.480050000000000310e-01 1.218642000000000003e+00 4.876190000000000246e-01 -1.605258999999999991e+00 8.809970000000000301e-01 -2.239301999999999904e+00 -1.124980000000000008e-01 9.244369999999999532e-01 -1.322359999999999980e+00 -1.430643000000000109e+00 3.401049999999999907e-01 -1.445163999999999893e+00 -9.156090000000000062e-01 -9.141789999999999639e-01 -4.218310000000000115e-01 3.416113000000000177e+00 1.033242999999999912e+00 -2.033024000000000164e+00 -6.212670000000000137e-01 1.380139999999999978e-01 -3.320119999999999738e-01 1.690221999999999891e+00 1.033447000000000005e+00 -2.324029999999999985e-01 -3.358729999999999771e-01 -3.701800000000000090e-01 2.383450999999999986e+00 -4.136119999999999797e-01 -9.085699999999999887e-01 4.653089999999999726e-01 4.046826000000000256e+00 3.259819999999999940e+00 2.715449999999999808e-01 8.233519999999999728e-01 -8.716526999999999248e+00 2.218469999999999887e-01 -1.434182999999999986e+00 -1.068081999999999976e+00 -8.603189999999999449e-01 -6.953390000000000404e-01 1.202439000000000036e+00 7.920129999999999670e-01 -1.056146000000000029e+00 3.295159999999999756e-01 -1.601704999999999934e+00 -2.524532999999999916e+00 9.083900000000000308e-01 1.803039000000000058e+00 5.704719999999999791e-01 -7.953949999999999632e-01 8.925321000000000282e+00 4.575642000000000209e+00 1.864368000000000025e+00 1.266542999999999974e+00 3.669080000000000119e-01 5.364600000000000479e-01 3.816104999999999858e+00 -1.437410000000000077e-01 -4.680360000000000076e-01 -7.626030000000000308e-01 -1.910000000000000077e-04 1.893243999999999927e+00 -2.749086999999999836e+00 -4.341096000000000288e+00 3.148886000000000074e+00 2.458854999999999791e+00 -1.085744000000000042e+00 1.717629000000000072e+00 -7.946594000000000158e+00 3.407147999999999843e+00 1.714391999999999916e+00
3.999750000000000139e+00 -2.086991999999999958e+00 -7.147900000000000087e-02 -6.423130000000000228e-01 -1.371845999999999899e+00 1.039798999999999918e+00 -9.424129999999999452e-01 7.006679999999999575e-01 6.361500000000000488e-02 6.126019999999999799e-01 2.368697000000000052e+00 -4.058699999999999808e-02 9.737700000000000522e-02 1.795781999999999989e+00 -6.514290000000000358e-01 7.044869999999999743e-01 1.064626000000000072e+00 -1.132490000000000024e-01 -3.292459999999999831e-01 2.774643999999999888e+00 -1.992359999999999964e-01 5.949400000000000244e-01 3.708350000000000257e-01 1.267155999999999949e+00 5.636870000000000491e-01 -2.688039999999999874e-01 -7.049809999999999688e-01 -1.180727000000000082e+00 -3.293900000000000300e-02 -8.728299999999999947e-01 5.322930000000000161e-01 1.640784999999999938e+00 -1.368878999999999957e+00 -1.087634999999999907e+00 -5.565020000000000522e-01 -1.125776000000000110e+00 -3.044620000000000104e-01 -1.721926000000000068e+00 -5.153680000000000483e-01 7.759319999999999551e-01 1.107024000000000008e+00 6.374400000000000066e-01 -1.197356000000000087e+00 2.073853999999999864e+00 -1.517860000000000043e-01 -2.403065999999999924e+00 -2.063734999999999875e+00 -8.898599999999999843e-01 -3.216000000000000109e-03 -1.832945999999999964e+00 7.529120000000000257e-01 4.508840000000000070e-01 -8.146299999999999653e-01 6.381339999999999790e-01 5.703500000000000236e-02 -1.533660000000000023e+00 8.441199999999999815e-01 -1.054821000000000009e+00 6.801209999999999756e-01 -1.549039000000000055e+00 -3.662460000000000160e-01 1.816038000000000041e+00 1.425098999999999894e+00 -1.836980000000000002e-01 -7.615220000000000322e-01 -2.009084999999999788e+00 -2.560220000000000273e-01 -5.258589999999999653e-01 9.215630000000000210e-01 1.433740999999999932e+00 2.239797999999999956e+00 3.800279999999999769e-01 -1.289359999999999951e-01 1.531411000000000078e+00 -5.365480000000000249e-01 -1.224325000000000108e+00 4.461699999999999694e-02 3.000570000000000181e-01 1.104249000000000036e+00 -1.208676000000000084e+00 1.067606000000000055e+00 1.373221000000000025e+00 5.197370000000000045e-01 4.545989999999999753e-01 -4.147410000000000263e-01 -8.017699999999999827e-02 -7.449090000000000433e-01 -1.706947999999999910e+00 -1.141059999999999991e-01 6.136920000000000153e-01 7.290609999999999591e-01 1.092171999999999921e+00 2.878120000000000123e-01 1.065836000000000006e+00 -6.111750000000000238e-01 -7.092469999999999608e-01 -1.903890000000000027e-01 -5.107999999999999693e-03 5.332249999999999490e-01 4.767399999999999971e-01 2.020089999999999941e-01 3.612705000000000055e+00 9.661300000000000443e-02 -3.133899999999999880e-02 -3.975414999999999921e+00 -2.082413999999999987e+00 2.425483999999999973e+00 9.292489999999999917e-01 -4.579719999999999902e-01 -6.517249999999999988e-01 -5.015810000000000546e-01 -3.903750000000000275e-01 -1.390608999999999984e+00 3.911410000000000164e-01 5.838470000000000049e-01 -2.815307999999999922e+00 1.221322999999999936e+00 -2.052993999999999986e+00 -1.611834999999999907e+00 1.303989999999999871e-01 3.492183999999999955e+00 2.132047000000000025e+00 1.480980000000000074e-01 -9.010080000000000311e-01 -4.672089999999999854e-01 -8.719599999999999573e-01 1.706812999999999914e+00 2.053268999999999789e+00 5.448429999999999662e-01 -2.209609999999999908e-01 5.278410000000000046e-01 -6.536319999999999908e-01 4.919129999999999892e-01 -3.773743000000000070e+00 -6.493039999999999923e-01 1.982151999999999914e+00 -3.510848000000000191e+00 2.164200000000000151e-02 -3.203073999999999977e+00 6.817590000000000039e-01 6.799220000000000264e-01