6.175544468000000009e+00 0.000000000000000000e+00 0.000000000000000000e+00 -1.479936452000000013e+00 7.910192271999999747e+00 0.000000000000000000e+00 -1.576400696999999962e+00 2.474461080000000202e+00 7.499764356000000021e+00
6.202521918000000412e+00 0.000000000000000000e+00 0.000000000000000000e+00 -1.621448647000000021e+00 8.124911631999999884e+00 0.000000000000000000e+00 -1.515438250000000098e+00 2.852970870000000048e+00 7.569010038000000051e+00
6.018007028999999619e+00 0.000000000000000000e+00 0.000000000000000000e+00 -1.578262030000000093e+00 7.991892065000000045e+00 0.000000000000000000e+00 -1.859583135000000054e+00 2.635208097000000027e+00 7.482965070999999746e+00
6.108982249000000309e+00 0.000000000000000000e+00 0.000000000000000000e+00 -1.448276936000000070e+00 7.969959983999999942e+00 0.000000000000000000e+00 -1.417331788000000037e+00 2.648178102999999783e+00 7.568711771000000255e+00
6.028063483999999583e+00 0.000000000000000000e+00 0.000000000000000000e+00 -1.578985800999999967e+00 8.023907959000000645e+00 0.000000000000000000e+00 -1.416669302000000075e+00 2.914709530000000104e+00 7.449162485999999639e+00
6.114577953999999593e+00 0.000000000000000000e+00 0.000000000000000000e+00 -1.466415763000000094e+00 8.034523268999999246e+00 0.000000000000000000e+00 -1.517481611000000008e+00 2.664728364000000127e+00 7.627678965000000311e+00
6.168370079999999867e+00 0.000000000000000000e+00 0.000000000000000000e+00 -1.491181735999999924e+00 7.882910168999999634e+00 0.000000000000000000e+00 -1.570358979999999960e+00 2.561351200999999911e+00 7.503659289999999871e+00
6.125792900999999624e+00 0.000000000000000000e+00 0.000000000000000000e+00 -1.419110980999999994e+00 7.878041957999999845e+00 0.000000000000000000e+00 -1.630814879000000106e+00 2.328231805000000154e+00 7.581412334999999558e+00
