1.964987999999999957e+00 1.768002000000000073e+00 -1.753700000000000050e-02 1.422306000000000070e+00 5.871819999999999817e-01 -8.653500000000000081e-02 2.487149000000000054e+00 1.074608999999999925e+00 1.865472999999999937e+00 -5.760290000000000132e-01 2.052159000000000066e+00 2.407680000000000098e-01 -1.462289999999999979e-01 -4.086879999999999957e-01 3.539169999999999816e-01 -1.411899000000000015e+00 -7.662402000000000157e+00 1.811160000000000103e+00 1.684452999999999978e+00 1.945975999999999928e+00 -2.904300000000000104e+00 2.311354000000000131e+00 -9.759719999999999507e-01 3.747360000000000135e-01 -2.029504999999999892e+00 -1.487630999999999926e+00 -2.750016000000000016e+00 -8.593800000000000050e-02 -9.135450000000000514e-01 8.916789999999999994e-01 -3.293360000000000176e-01 -1.543601000000000001e+00 -1.388199999999999990e-01 -1.429508999999999919e+00 -1.527789999999999981e-01 2.147997999999999852e+00 -4.235140000000000016e-01 -1.705260000000000109e-01 -3.380199999999999871e-01 -1.499544999999999906e+00 5.527039999999999731e-01 -8.007560000000000233e-01 -2.701319999999999943e+00 1.199446999999999930e+00 1.779182000000000041e+00 -5.957539999999999836e+00 2.115863000000000049e+00 1.861264000000000030e+00 -2.527325999999999961e+00 6.169489999999999696e-01 2.824291000000000107e+00 4.976207999999999743e+00 2.328367000000000075e+00 -1.628640000000000088e-01 -1.725135000000000085e+00 -2.445555000000000145e+00 -2.104976000000000180e+00 -2.503210000000000157e-01 2.136140000000000150e+00 -6.199189999999999978e-01 1.324875000000000025e+00 -4.549019999999999730e-01 3.142240000000000033e-01 6.402889999999999970e-01 4.848319999999999852e-01 7.370970000000000022e-01 -1.820209999999999884e-01 1.670717000000000008e+00 -1.312810999999999950e+00 -1.572977999999999987e+00 -5.151499999999999829e-02 1.211858000000000102e+00 3.304092999999999947e+00 -3.125280000000000058e+00 2.350506000000000206e+00 2.659762000000000182e+00 -3.702367999999999881e+00 1.559895000000000032e+00 -1.606599000000000110e+00 7.775393000000000221e+00 -2.649281999999999915e+00 1.282904000000000044e+00 1.354559000000000069e+00 -1.154419000000000084e+00 -6.197899999999999521e-01 2.283509000000000011e+00 -1.999811000000000005e+00 -1.827747000000000011e+00 -2.251420000000000088e-01 6.990730000000000555e-01 -6.369190000000000129e-01 -7.024439999999999573e-01 -2.560265999999999931e+00 1.907513000000000014e+00 -1.822673999999999905e+00 -4.770690000000000208e-01 3.380523000000000167e+00 1.062683999999999962e+00 5.091400000000000092e-02 6.913179999999999881e-01 -5.582129999999999592e-01 3.373726000000000003e+00 5.808010000000000117e-01 -9.705999999999999350e-02 -1.866346999999999978e+00 -3.079334999999999933e+00 -4.508795000000000108e+00 -2.504011000000000209e+00
-1.848803999999999892e+00 2.494463000000000097e+00 -1.834381000000000039e+00 -1.915512000000000103e+00 -6.476030000000000397e-01 3.403109999999999746e-01 -5.127159999999999496e-01 -1.987281000000000075e+00 4.265475000000000350e+00 7.287989999999999746e-01 -1.875032999999999950e+00 -5.024750000000000050e-01 -2.521682999999999897e+00 4.582201999999999664e+00 6.886980000000000324e-01 5.408739999999999659e-01 -1.045520999999999923e+00 -4.521609999999999796e-01 -6.646940000000000071e-01 -1.546542000000000083e+00 -7.677880000000000260e-01 -7.845299999999999496e-02 1.158629999999999938e-01 1.766169000000000100e+00 -2.254356000000000027e+00 -6.263399999999999523e-02 8.525059999999999860e-01 2.503650000000000042e-01 4.086540000000000172e-01 3.750220000000000220e-01 2.277552000000000021e+00 -3.033624999999999794e+00 -1.510887000000000091e+00 -7.048280000000000101e-01 -1.597610999999999892e+00 9.469250000000000167e-01 -1.286483999999999961e+00 7.511900000000000521e-02 -3.406449999999999978e+00 -4.405089999999999839e-01 -4.732759999999999745e-01 8.026339999999999586e-01 -3.178340000000000054e-01 -4.625259999999999927e-01 -1.446908000000000083e+00 5.901790000000000092e-01 -1.268262000000000000e+00 -3.025070000000000259e-01 1.444201000000000068e+00 -2.437504000000000115e+00 1.412541999999999964e+00 9.053980000000000361e-01 3.153909999999999769e-01 7.404169999999999918e-01 -1.272926000000000002e+00 -1.267359999999999876e-01 -7.300990000000000535e-01 1.940839999999999899e+00 -7.943620000000000125e-01 4.321075000000000443e+00 8.408200000000000118e-01 1.393219999999999903e+00 -1.727062000000000097e+00 1.614038000000000084e+00 8.950120000000000298e-01 -1.016469999999999985e+00 1.376800000000000072e-02 -1.722058000000000089e+00 -7.639259999999999939e-01 -1.861109999999999987e-01 1.667944000000000093e+00 -6.828379999999999450e-01 -6.215659999999999519e-01 1.450539999999999885e-01 -1.616789000000000032e+00 5.884519999999999751e-01 4.301389999999999936e-01 7.623170000000000224e-01 9.872710000000000097e-01 -1.716665000000000108e+00 -1.957194000000000100e+00 3.646596000000000171e+00 -1.385539000000000076e+00 -1.582791999999999977e+00 -1.478696000000000010e+00 3.515080999999999900e+00 -1.103232999999999908e+00 9.586000000000000076e-02 9.225899999999999379e-02 -8.744690000000000518e-01 -2.174510000000000054e-01 1.457295999999999925e+00 8.309729999999999617e-01 1.958916000000000102e+00 2.809900000000000175e-01 3.245155000000000012e+00 3.109439999999999982e-01 2.640001999999999960e+00 -3.671829999999999816e-01 -7.276209999999999622e-01 1.106198999999999932e+00 1.491891000000000078e+00 -1.497414000000000023e+00 1.970917000000000030e+00 7.226970000000000338e-01 -1.872139999999999915e-01 -1.403029000000000082e+00 -9.191960000000000131e-01
9.628499999999999559e-02 5.777259999999999618e-01 1.837568000000000090e+00 7.471400000000000263e-01 -8.558300000000000629e-02 5.384719999999999507e-01 3.847550000000000137e-01 -4.572180000000000133e-01 -9.781050000000000022e-01 1.330445000000000100e+00 5.601319999999999633e-01 -5.486820000000000030e-01 -6.345070000000000432e-01 4.002988000000000213e+00 3.390041000000000082e+00 2.068665000000000198e+00 -9.482300000000000173e-01 -4.285499999999999865e-01 4.799359999999999737e-01 -2.650090000000000057e+00 8.335240000000000427e-01 1.278825000000000101e+00 -1.874595999999999929e+00 9.914230000000000542e-01 8.946119999999999628e-01 -1.095200000000000062e-01 -1.523599999999999954e-02 1.111731999999999942e+00 1.492990999999999957e+00 9.817310000000000203e-01 -1.376603000000000021e+00 -3.947919000000000178e+00 1.068229000000000095e+00 -1.721570000000000045e-01 -9.179876000000000147e+00 3.367939999999999934e+00 1.306985000000000063e+00 -1.057833000000000023e+00 -1.183690000000000020e-01 3.283400000000000207e-02 9.783619999999999539e-01 1.894338000000000077e+00 7.467000000000000026e-02 -1.746749999999999969e-01 -4.090670000000000139e-01 2.342524000000000051e+00 1.032739999999999991e+00 8.037119999999999820e-01 -1.829447000000000045e+00 3.207599999999999896e-01 1.749239999999999906e+00 -1.696706999999999965e+00 2.733741000000000199e+00 -1.279989999999999961e+00 1.427618000000000054e+00 8.336989999999999679e-01 -6.816099999999999937e-02 -2.559029999999999916e-01 1.433089999999999975e+00 -8.899390000000000356e-01 -2.985470000000000068e-01 1.351985999999999910e+00 -2.567099999999999937e-01 -2.315398000000000067e+00 -1.601933999999999969e+00 -5.427020000000000177e-01 -7.228329999999999478e-01 -1.482466999999999979e+00 -6.639890000000000514e-01 -3.563274999999999970e+00 -1.796813999999999911e+00 -4.104519999999999835e-01 1.140025000000000066e+00 -8.350830000000000197e-01 -2.985240000000000116e+00 3.719019999999999992e+00 -2.452895999999999965e+00 -1.603812000000000015e+00 3.819770000000000110e-01 2.159030000000000005e+00 3.310159999999999769e-01 -2.191406000000000187e+00 -1.312557999999999891e+00 -2.175396000000000107e+00 -2.119019000000000208e+00 1.114325999999999928e+00 -1.088063999999999920e+00 1.780345000000000066e+00 -7.413079999999999670e-01 1.848573000000000022e+00 5.132250000000000423e-01 8.520469999999999988e-01 1.163146999999999931e+00 1.134857999999999922e+00 1.122004999999999919e+00 -4.316512000000000349e+00 1.190590000000000037e+00 7.974562999999999846e+00 -2.187428000000000150e+00 -3.646851999999999983e+00 2.064070000000000071e-01 -6.320900000000000407e-01 -2.078257999999999939e+00 2.133696000000000037e+00 4.218649999999999900e-01 -5.361559999999999659e-01 -1.716880000000000073e-01 3.776740000000000097e-01
-6.552890000000000104e-01 -2.060862000000000194e+00 -1.483131999999999895e+00 -2.038066999999999851e+00 -1.021989999999999954e+00 1.078419999999999934e+00 -3.652659999999999796e-01 -3.364529999999999799e+00 9.526949999999999585e-01 -2.310966000000000076e+00 -1.792529999999999957e+00 2.229105999999999810e+00 -5.460629999999999651e-01 -1.287089999999999901e-01 1.246194000000000024e+00 -4.567660000000000053e-01 -7.446310000000000429e-01 1.547028000000000070e+00 -1.451999999999999957e-01 1.926690000000000014e+00 -9.243109000000000464e+00 1.107599000000000000e+00 -1.765967000000000064e+00 -8.612119999999999775e-01 2.228819999999999801e+00 2.317028000000000088e+00 1.310920000000000085e+00 1.478750000000000064e-01 -2.672053000000000011e+00 1.774894999999999889e+00 -6.108460000000000001e-01 -7.272129999999999983e-01 -1.849091999999999958e+00 -2.377999999999999906e-02 1.842356000000000105e+00 -4.595620000000000260e-01 2.389260000000000161e+00 -4.222910000000000275e-01 -1.016701000000000077e+00 -8.786900000000000266e-02 -4.709519999999999817e-01 1.747395999999999949e+00 8.813300000000000300e-02 6.620000000000000329e-01 2.166444999999999954e+00 2.765613999999999795e+00 6.403729999999999700e-01 1.295177000000000023e+00 -5.989790000000000392e-01 -8.322730000000000405e-01 1.353853999999999891e+00 1.737082999999999933e+00 1.671169999999999878e-01 6.422660000000000036e-01 4.843569999999999820e-01 2.535819999999999741e-01 1.335992000000000068e+00 9.928399999999999725e-02 1.739935999999999927e+00 1.606527999999999956e+00 -5.724800000000000028e-02 -6.995620000000000172e-01 -7.684309999999999752e-01 4.640270000000000228e-01 6.280179999999999652e-01 -1.536621999999999932e+00 3.334590000000000054e-01 2.023432999999999815e+00 -1.619139000000000106e+00 -4.700779999999999959e-01 4.594617999999999647e+00 -1.705329000000000095e+00 -2.089077000000000073e+00 2.144455999999999918e+00 -1.675861999999999963e+00 -1.661489999999999911e-01 1.616443999999999992e+00 8.979998000000000147e+00 -1.892857999999999929e+00 -3.061539999999999817e-01 2.162600000000000078e-01 -1.023349999999999954e-01 6.703949999999999632e-01 -9.449599999999999667e-02 1.672986000000000084e+00 -1.262928000000000051e+00 -2.280130000000000212e+00 5.313379999999999770e-01 6.644600000000000506e-02 1.989505999999999997e+00 -1.442007000000000039e+00 -8.652799999999999381e-02 -2.894700999999999969e+00 1.224760000000000071e+00 -3.964840000000000031e-01 4.478880000000000083e-01 5.020740000000000203e-01 -1.936291999999999902e+00 -1.735208000000000084e+00 -5.724559999999999649e-01 -1.036800000000000048e-02 -1.211729000000000056e+00 -4.283429999999999738e-01 1.607351999999999892e+00 -1.345355999999999996e+00 -7.170269999999999699e-01 -2.197925999999999824e+00 -1.407569999999999932e-01
4.571009999999999796e-01 -3.197570000000000134e-01 -1.316534000000000093e+00 1.426247999999999960e+00 -4.195110000000000228e-01 -7.181469999999999798e-01 2.699449999999999905e-01 -8.132939999999999614e-01 -1.341620000000000035e-01 -1.335080999999999962e+00 -4.425319999999999809e-01 -5.024485999999999564e+00 1.323134000000000032e+00 1.404511000000000065e+00 -1.721590000000000065e-01 -7.369919999999999805e-01 -2.627120000000000011e-01 3.291680000000000161e-01 1.219980000000000064e+00 -7.120260000000000478e-01 2.875945000000000196e+00 1.569056999999999924e+00 1.881460000000000077e-01 7.747479999999999922e-01 -1.959570000000000034e+00 -2.527508000000000088e+00 -2.193436000000000163e+00 2.399689999999999879e-01 2.600640000000000174e-01 -2.609208000000000194e+00 -1.749773999999999941e+00 1.363245999999999958e+00 -1.143493000000000093e+00 -1.031123000000000012e+00 -8.537933000000000661e+00 2.249776000000000220e+00 3.203010000000000024e-01 -1.558910999999999936e+00 -9.827510000000000412e-01 -5.680009999999999781e-01 -4.818850000000000078e-01 -1.228849999999999998e+00 5.387180000000000302e-01 -1.429583000000000048e+00 -6.473069999999999657e-01 -5.021419999999999773e-01 9.083940000000000348e-01 -1.477209999999999912e-01 5.088939999999999575e-01 -4.375740000000000185e-01 -2.082967000000000013e+00 1.836270999999999987e+00 1.242525000000000102e+00 7.694609999999999506e-01 8.913600000000000412e-01 1.132622000000000018e+00 -2.475614000000000203e+00 -1.106739999999999946e-01 -1.434218999999999911e+00 2.618482999999999894e+00 1.955100000000000060e+00 3.283335999999999810e+00 -1.174500000000000023e-02 1.926290000000000058e+00 1.708674000000000026e+00 -2.052400000000000058e-01 -1.011670000000000069e+00 -1.401553000000000049e+00 1.776934000000000013e+00 7.428360000000000518e-01 3.798630000000000062e-01 9.260960000000000303e-01 8.945699999999999763e-01 -2.840241999999999933e+00 2.223354000000000052e+00 -1.181548999999999960e+00 5.155099999999999960e-02 -3.862400000000000277e-01 1.505347999999999908e+00 -1.300977999999999968e+00 -6.944740000000000357e-01 -1.963144000000000000e+00 1.562439999999999940e-01 2.416849000000000025e+00 1.306875999999999927e+00 1.258307000000000064e+00 1.994358000000000075e+00 -6.380550000000000388e-01 -1.219554000000000027e+00 2.151050000000000129e+00 -1.019573000000000063e+00 2.497034999999999894e+00 1.079703000000000079e+00 2.733729999999999771e-01 7.269189999999999818e-01 1.256073999999999913e+00 -6.651160000000000405e-01 9.452693000000000012e+00 -2.115181999999999896e+00 -4.088049999999999740e-01 1.487189999999999901e-01 -1.693243000000000054e+00 -1.818963000000000108e+00 -5.415060000000000429e-01 2.053735999999999784e+00 -2.505139999999999922e+00 5.184299999999999464e-01 4.872219999999999884e-01
-1.103940000000000060e-01 5.400639999999999885e-01 1.163826999999999945e+00 -2.609250000000000180e-01 1.683400999999999925e+00 -3.389996000000000009e+00 3.497939999999999938e-01 1.365590000000000137e-01 9.093719999999999581e-01 -1.872149999999999925e-01 -2.166600000000000123e-02 7.180600000000000316e-01 -1.447907000000000055e+00 -1.466385000000000050e+00 -8.935400000000000287e-02 9.361899999999999389e-02 -2.331516999999999840e+00 8.284960000000000102e-01 4.925880000000000258e-01 -9.569338999999999373e+00 2.575161000000000033e+00 3.540200000000000291e-02 -2.599449999999999816e-01 -1.541865999999999959e+00 7.414500000000000535e-01 -1.045438000000000089e+00 2.659266000000000130e+00 4.452559999999999851e-01 1.521794000000000091e+00 1.534157999999999911e+00 -1.438828999999999914e+00 1.261570999999999998e+00 -7.235420000000000185e-01 5.218920000000000226e-01 1.488097999999999921e+00 -1.131267000000000023e+00 -1.048529999999999962e+00 6.816419999999999702e-01 2.341189999999999938e-01 -6.416099999999999581e-02 -5.234480000000000244e-01 7.884599999999999942e-02 2.421539999999999804e+00 -7.264389999999999459e-01 3.221178000000000097e+00 -1.549333999999999989e+00 8.311699999999999644e-02 1.866861000000000104e+00 7.450259999999999661e-01 1.864639999999999909e-01 -3.345600000000000240e-01 -3.302893000000000079e+00 1.189478000000000035e+00 1.207535000000000025e+00 6.658039999999999514e-01 7.462913999999999604e+00 -4.028380000000000294e+00 -7.526850000000000485e-01 -2.667888000000000037e+00 1.357029999999999903e-01 -1.896519999999999873e-01 1.263959000000000055e+00 3.206782000000000021e+00 3.449104999999999865e+00 -4.296159999999999979e-01 -4.081270000000000175e-01 8.562600000000000211e-01 1.417167999999999983e+00 -5.909980000000000233e-01 -6.079099999999999504e-01 1.405057999999999918e+00 -2.801763999999999921e+00 -1.241252999999999940e+00 5.095150000000000512e-01 -1.847429999999999906e-01 -4.766699999999999826e-01 1.425694000000000017e+00 -4.332770000000000232e-01 4.141730000000000134e-01 -1.675909999999999900e-01 -9.341990000000000016e-01 3.090829999999999966e-01 4.079570000000000141e-01 -2.455269999999999953e-01 2.256839999999999957e-01 -2.865124999999999922e+00 5.672129999999999672e-01 1.606269999999999920e-01 -1.707815000000000083e+00 -1.037365000000000093e+00 -2.269410999999999845e+00 4.495819999999999816e-01 -2.712661000000000211e+00 1.493583000000000105e+00 -2.325889999999999902e-01 -1.854449999999999987e-01 -3.355421000000000209e+00 -1.600918999999999981e+00 1.643718999999999930e+00 1.948004999999999987e+00 7.043779999999999486e-01 -2.049429999999999863e-01 4.312499999999999667e-02 4.379199999999999759e-02 3.802150000000000252e-01 2.891173000000000215e+00 1.753514999999999935e+00 -1.952498000000000067e+00
6.298070000000000057e-01 -5.219409999999999883e-01 1.098927999999999905e+00 8.373230000000000395e-01 1.642180999999999891e+00 -6.618020000000000014e-01 -1.293309999999999960e+00 9.139549999999999619e-01 -4.836989999999999901e-01 -5.677716000000000207e+00 1.575655999999999946e+00 6.423130000000000228e-01 6.468709999999999738e-01 -7.106580000000000119e-01 6.819570000000000354e-01 4.747580000000000133e-01 -2.178425999999999974e+00 -8.549590000000000245e-01 1.351676000000000100e+00 -1.138139999999999930e+00 7.296800000000000508e-02 4.191346000000000238e+00 1.031063000000000063e+00 -1.376576999999999940e+00 -3.118195000000000050e+00 -1.504960999999999993e+00 2.025147000000000030e+00 -3.754064000000000068e+00 3.592969999999999775e-01 -2.642650000000000277e-01 4.320100000000000051e-01 3.674169999999999936e-01 -2.544500000000000095e-01 3.788170000000000148e-01 5.485210000000000363e-01 1.341903999999999986e+00 -8.984320000000000084e-01 -3.320230000000000015e+00 1.329191000000000011e+00 2.601958999999999911e+00 9.990299999999999736e-01 -4.518429999999999946e-01 -1.588038999999999978e+00 1.165699999999999931e-01 1.696852999999999945e+00 -7.581457000000000335e+00 3.726294999999999913e+00 3.535388000000000197e+00 -3.997840000000000060e+00 -8.538170000000000481e-01 2.324435999999999947e+00 1.043886000000000092e+00 -1.696476000000000095e+00 3.456049999999999955e-01 5.237937999999999761e+00 -2.491836000000000162e+00 -2.010470000000000201e+00 -2.091041999999999845e+00 -1.094680000000000097e+00 8.898519999999999763e-01 -1.388929999999999887e-01 2.810722000000000165e+00 -9.509410000000000363e-01 7.653990000000000515e-01 -3.803440000000000154e-01 -2.472910000000000108e-01 -7.632670000000000288e-01 -7.003239999999999466e-01 7.486880000000000202e-01 3.158681000000000072e+00 -1.026224999999999943e+00 1.574864000000000042e+00 6.512828999999999979e+00 -3.660493000000000219e+00 -4.187712000000000323e+00 9.281669999999999643e-01 1.394778000000000073e+00 1.327010000000000134e-01 -5.942530000000000312e-01 1.340656999999999988e+00 6.619420000000000304e-01 -8.828289999999999749e-01 4.400229999999999975e-01 -1.535808999999999980e+00 4.946869999999999878e-01 6.497899999999999787e-01 2.345480000000000065e-01 -2.031006000000000089e+00 -1.751846999999999932e+00 1.947119999999999962e+00 3.319552999999999976e+00 -4.146949999999999803e-01 -2.685106000000000215e+00 -9.645820000000000505e-01 -2.525192000000000103e+00 -1.004825999999999997e+00 1.096848999999999963e+00 -6.775290000000000479e-01 2.233001999999999931e+00 4.274919999999999831e-01 4.570097999999999772e+00 -4.237677999999999834e+00 -4.799120000000000053e-01 1.667173999999999934e+00 -6.799190000000000511e-01 1.324788000000000077e+00 2.494590000000000085e+00 -1.630057000000000089e+00
3.413958000000000048e+00 2.603674999999999962e+00 -2.196009999999999907e-01 -1.374950000000000061e-01 -1.639081999999999928e+00 7.373769999999999492e-01 3.026840000000000086e-01 5.358079999999999510e-01 2.882585999999999871e+00 -1.325900000000000079e+00 -2.691609999999999836e-01 -1.775099999999999900e+00 -4.451100000000000056e-01 -3.507999999999999834e-03 8.757319999999999549e-01 -1.833488999999999924e+00 1.097461999999999938e+00 3.983690000000000175e+00 -2.127727000000000146e+00 -2.891729999999999912e+00 -1.867094999999999949e+00 -7.421929999999999916e-01 1.875523999999999969e+00 -2.248196000000000083e+00 -4.188930000000000153e-01 -1.012922700000000020e+01 3.140757999999999939e+00 4.449879999999999947e-01 6.801999999999999713e-02 -1.466459999999999986e-01 7.211459999999999537e-01 -1.230920999999999932e+00 -3.393610000000000237e-01 -2.063600999999999797e+00 2.681061000000000138e+00 5.279999999999999971e-02 1.200506000000000073e+00 -3.929193000000000158e+00 1.776900000000000007e-02 4.827528000000000041e+00 2.160140999999999867e+00 1.796286999999999967e+00 -1.103183000000000025e+00 7.393830000000000124e-01 -6.451860000000000372e-01 2.850506999999999902e+00 2.841352999999999795e+00 -9.195999999999999314e-03 -8.460299999999999487e-01 7.198699999999999544e-02 -1.700049999999999895e-01 6.408580000000000387e-01 5.309949999999999948e-01 -1.697384000000000004e+00 -3.627374999999999794e+00 -4.537709999999999799e-01 -3.268923000000000023e+00 1.760223000000000093e+00 5.049630000000000507e-01 2.249693000000000165e+00 -1.835189999999999877e-01 6.272694000000000436e+00 -3.992140000000000022e+00 -4.699400000000000244e-01 1.311344999999999983e+00 1.705866000000000104e+00 -8.009549999999999725e-01 -3.277410000000000045e-01 -2.339748999999999857e+00 2.978439999999999976e-01 2.919910000000000005e-01 -1.369687000000000099e+00 -3.563609999999999833e-01 6.716520000000000268e-01 -8.651320000000000121e-01 -2.481339999999999935e-01 5.887869999999999493e-01 3.954995999999999956e+00 -6.795449999999999546e-01 2.684102000000000210e+00 3.216336000000000084e+00 1.765431999999999890e+00 -1.499635000000000051e+00 -7.592910000000000492e-01 -9.044630000000000170e-01 7.797610000000000374e-01 9.759409999999999474e-01 1.552785000000000082e+00 1.028980000000000034e-01 -8.582089999999999996e-01 9.528000000000000358e-02 -1.434970000000000134e-01 5.664660000000000251e-01 -4.413007999999999598e+00 -2.895436000000000121e+00 -3.310649999999999982e-01 -5.834629999999999539e-01 -2.321809000000000012e+00 -1.273152999999999979e+00 -2.571439999999999837e-01 1.304448000000000052e+00 -2.609129999999999949e+00 3.172254999999999825e+00 -1.060321999999999987e+00 -1.202180000000000026e+00 5.215349999999999708e-01 -9.230169999999999764e-01 1.830133000000000010e+00
