6.190568158999999682e+00 0.000000000000000000e+00 0.000000000000000000e+00 -1.358840212000000047e+00 8.063976415999999148e+00 0.000000000000000000e+00 -1.638758903999999905e+00 2.837755276999999854e+00 7.419747196000000322e+00
6.166770296000000151e+00 0.000000000000000000e+00 0.000000000000000000e+00 -1.534327986000000088e+00 8.211977477999999664e+00 0.000000000000000000e+00 -1.616670376999999936e+00 3.092243363000000134e+00 7.361625909999999884e+00
6.104983901999999851e+00 0.000000000000000000e+00 0.000000000000000000e+00 -1.500394726999999984e+00 8.016788947000000221e+00 0.000000000000000000e+00 -1.512783999999999907e+00 2.704743622000000070e+00 7.563043603999999753e+00
6.017901647999999604e+00 0.000000000000000000e+00 0.000000000000000000e+00 -1.498362425999999914e+00 7.806408689000000400e+00 0.000000000000000000e+00 -1.505771487999999936e+00 2.638313377999999876e+00 7.447075414999999587e+00
6.077728837999999634e+00 0.000000000000000000e+00 0.000000000000000000e+00 -1.551940866000000030e+00 7.876589103999999786e+00 0.000000000000000000e+00 -1.509072528999999996e+00 2.510087747000000036e+00 7.529460358999999769e+00
6.029728043000000426e+00 0.000000000000000000e+00 0.000000000000000000e+00 -1.538771831999999895e+00 7.968281185000000377e+00 0.000000000000000000e+00 -1.432581241999999921e+00 2.629128747999999849e+00 7.713383022000000366e+00
6.175862168000000096e+00 0.000000000000000000e+00 0.000000000000000000e+00 -1.576880896000000032e+00 8.013902558999999926e+00 0.000000000000000000e+00 -1.520903466999999898e+00 2.485025027999999914e+00 7.357611477999999927e+00
6.107685132000000294e+00 0.000000000000000000e+00 0.000000000000000000e+00 -1.465760219999999947e+00 7.969685514000000026e+00 0.000000000000000000e+00 -1.580470193000000023e+00 2.738421964000000042e+00 7.803591252000000367e+00
6.032035291999999771e+00 0.000000000000000000e+00 0.000000000000000000e+00 -1.417988687000000025e+00 8.245951593999999218e+00 0.000000000000000000e+00 -1.578684696999999915e+00 3.059820511999999937e+00 7.461294095000000404e+00
6.108196954000000289e+00 0.000000000000000000e+00 0.000000000000000000e+00 -1.574247807999999971e+00 7.811590400000000045e+00 0.000000000000000000e+00 -1.581734835000000006e+00 2.637193696000000198e+00 7.547090567999999777e+00
6.120889681999999610e+00 0.000000000000000000e+00 0.000000000000000000e+00 -1.607493164999999946e+00 7.845945752000000439e+00 0.000000000000000000e+00 -1.396556944000000078e+00 2.560027207000000082e+00 7.422531901000000154e+00
5.909800237999999872e+00 0.000000000000000000e+00 0.000000000000000000e+00 -1.468199089999999929e+00 7.769499284000000117e+00 0.000000000000000000e+00 -1.552463276999999975e+00 2.591436857999999788e+00 7.554179395000000241e+00
6.155975102000000199e+00 0.000000000000000000e+00 0.000000000000000000e+00 -1.605341091999999970e+00 8.076564528000000465e+00 0.000000000000000000e+00 -1.597019610000000034e+00 2.922150316999999831e+00 7.512444989999999656e+00
6.012999939000000182e+00 0.000000000000000000e+00 0.000000000000000000e+00 -1.499188007000000100e+00 8.013860943999999265e+00 0.000000000000000000e+00 -1.458882881999999936e+00 2.678608507999999944e+00 7.764602623000000037e+00
6.144766115999999556e+00 0.000000000000000000e+00 0.000000000000000000e+00 -1.564974443999999965e+00 7.820099908000000433e+00 0.000000000000000000e+00 -1.493069216999999949e+00 2.399268410999999990e+00 7.358657079000000323e+00
6.049269113000000253e+00 0.000000000000000000e+00 0.000000000000000000e+00 -1.598631096999999945e+00 7.929718762000000254e+00 0.000000000000000000e+00 -1.524062744000000080e+00 2.533180112999999789e+00 7.686459994999999878e+00
6.063332699000000048e+00 0.000000000000000000e+00 0.000000000000000000e+00 -1.462003780000000086e+00 8.000551614999999117e+00 0.000000000000000000e+00 -1.440262216000000040e+00 2.626462069000000010e+00 7.741893382999999851e+00
6.065187885000000279e+00 0.000000000000000000e+00 0.000000000000000000e+00 -1.372685774000000025e+00 7.995461492999999642e+00 0.000000000000000000e+00 -1.570845642000000097e+00 2.758736569999999944e+00 7.722790185000000029e+00
6.269790850999999776e+00 0.000000000000000000e+00 0.000000000000000000e+00 -1.739892508999999921e+00 7.944348671000000195e+00 0.000000000000000000e+00 -1.409088847999999894e+00 2.475725221999999892e+00 7.394641664999999975e+00
6.092249404999999562e+00 0.000000000000000000e+00 0.000000000000000000e+00 -1.513296238999999987e+00 7.967142668000000150e+00 0.000000000000000000e+00 -1.674870552000000012e+00 2.620020207000000045e+00 7.727578720000000345e+00
6.132369865000000253e+00 0.000000000000000000e+00 0.000000000000000000e+00 -1.492390877000000060e+00 7.962427875000000377e+00 0.000000000000000000e+00 -1.749974008999999997e+00 2.720892038000000124e+00 7.551843381000000299e+00
6.172779756999999812e+00 0.000000000000000000e+00 0.000000000000000000e+00 -1.569736035000000030e+00 7.942988524000000439e+00 0.000000000000000000e+00 -1.536573329999999959e+00 2.350186088000000062e+00 7.427428840000000143e+00
6.172780820999999918e+00 0.000000000000000000e+00 0.000000000000000000e+00 -1.351617483000000064e+00 7.895438717000000217e+00 0.000000000000000000e+00 -1.515203161999999937e+00 2.643310744999999962e+00 7.815520800999999906e+00
6.101072173000000376e+00 0.000000000000000000e+00 0.000000000000000000e+00 4.596526314000000113e+00 8.109888512999999577e+00 0.000000000000000000e+00 4.548083317999999764e+00 2.889054751999999837e+00 7.419597647999999879e+00
5.982947346000000444e+00 0.000000000000000000e+00 0.000000000000000000e+00 -1.452172935999999970e+00 8.025811999000000085e+00 0.000000000000000000e+00 -1.525028309000000082e+00 2.968568450999999886e+00 7.229236414999999916e+00
6.068066813999999809e+00 0.000000000000000000e+00 0.000000000000000000e+00 -1.480350513000000090e+00 8.059227755000000215e+00 0.000000000000000000e+00 -1.595994716999999952e+00 2.850038128000000004e+00 7.698747098000000122e+00
6.143898118000000075e+00 0.000000000000000000e+00 0.000000000000000000e+00 -1.620035762000000101e+00 7.807530422000000137e+00 0.000000000000000000e+00 -1.439903557000000056e+00 2.500158787000000160e+00 7.273678845000000059e+00
6.137517225999999937e+00 0.000000000000000000e+00 0.000000000000000000e+00 -1.638593756999999984e+00 7.929237949000000008e+00 0.000000000000000000e+00 -1.553777807999999983e+00 2.533286236999999996e+00 7.620972448999999926e+00
6.117519946999999902e+00 0.000000000000000000e+00 0.000000000000000000e+00 -1.496151510000000018e+00 7.954980198000000335e+00 0.000000000000000000e+00 -1.614147988000000034e+00 2.744474555000000038e+00 7.372491525000000046e+00
6.026518741000000290e+00 0.000000000000000000e+00 0.000000000000000000e+00 -1.499314741999999923e+00 7.860613231000000312e+00 0.000000000000000000e+00 -1.505883792999999971e+00 2.630898844999999930e+00 7.391560988000000165e+00
5.999088879000000318e+00 0.000000000000000000e+00 0.000000000000000000e+00 -1.508201636999999984e+00 7.727711329999999990e+00 0.000000000000000000e+00 -1.528458179000000028e+00 2.635971429000000033e+00 7.429286578000000141e+00
6.140506911000000123e+00 0.000000000000000000e+00 0.000000000000000000e+00 -1.538075099999999917e+00 7.863328279000000087e+00 0.000000000000000000e+00 -1.565668497000000103e+00 2.632229120999999950e+00 7.675083075999999949e+00
6.103126623999999723e+00 0.000000000000000000e+00 0.000000000000000000e+00 -1.548201874000000089e+00 7.943528015000000053e+00 0.000000000000000000e+00 -1.507321184999999897e+00 2.482705102000000164e+00 7.524653894000000065e+00
6.218544400999999944e+00 0.000000000000000000e+00 0.000000000000000000e+00 -1.549467761999999915e+00 7.926317058000000415e+00 0.000000000000000000e+00 -1.585016128999999996e+00 2.547987915999999853e+00 7.585991710000000054e+00
6.145969870000000057e+00 0.000000000000000000e+00 0.000000000000000000e+00 -1.508874505999999949e+00 7.947704030999999780e+00 0.000000000000000000e+00 -1.648683804000000030e+00 2.670421054999999821e+00 7.631808773999999573e+00
6.220912039999999976e+00 0.000000000000000000e+00 0.000000000000000000e+00 -1.461274664000000056e+00 7.855260825000000224e+00 0.000000000000000000e+00 -1.552961158000000008e+00 2.518913823000000107e+00 7.785283304000000015e+00
6.090868450000000323e+00 0.000000000000000000e+00 0.000000000000000000e+00 -1.388798146000000067e+00 7.988314681000000306e+00 0.000000000000000000e+00 -1.627166305999999896e+00 2.805868690000000054e+00 7.623346249999999991e+00
6.187440621999999557e+00 0.000000000000000000e+00 0.000000000000000000e+00 -1.353233074000000036e+00 8.046711848999999361e+00 0.000000000000000000e+00 -1.633895459000000105e+00 2.840014855000000171e+00 7.442656397000000368e+00
6.148148268999999999e+00 0.000000000000000000e+00 0.000000000000000000e+00 -1.629930909000000039e+00 8.013785883000000609e+00 0.000000000000000000e+00 -1.513151453000000091e+00 2.594823738000000102e+00 7.607280242999999942e+00
6.214110424000000243e+00 0.000000000000000000e+00 0.000000000000000000e+00 -1.619809856000000048e+00 7.944428881000000331e+00 0.000000000000000000e+00 -1.456394152000000108e+00 2.548002370999999933e+00 7.423482879999999895e+00
6.211271423000000347e+00 0.000000000000000000e+00 0.000000000000000000e+00 -1.568593692000000095e+00 7.975640323999999559e+00 0.000000000000000000e+00 -1.579616442999999926e+00 2.504180842999999879e+00 7.518566569999999949e+00
6.095767868000000256e+00 0.000000000000000000e+00 0.000000000000000000e+00 -1.525693262000000106e+00 7.801234924000000071e+00 0.000000000000000000e+00 -1.532749809000000019e+00 2.587439155999999851e+00 7.449241327000000190e+00
6.157738458999999942e+00 0.000000000000000000e+00 0.000000000000000000e+00 -1.521812689000000107e+00 7.900615977000000179e+00 0.000000000000000000e+00 -1.490892596999999986e+00 2.736278469999999796e+00 7.717575148999999968e+00
5.977998742999999671e+00 0.000000000000000000e+00 0.000000000000000000e+00 -1.525105251999999911e+00 7.894506588999999686e+00 0.000000000000000000e+00 -1.533044158000000046e+00 2.561173339999999854e+00 7.703825259000000258e+00
6.144118262000000108e+00 0.000000000000000000e+00 0.000000000000000000e+00 -1.625429242999999913e+00 7.813610159000000444e+00 0.000000000000000000e+00 -1.386306739999999982e+00 2.451114743999999845e+00 7.274131460999999632e+00
6.062264718999999857e+00 0.000000000000000000e+00 0.000000000000000000e+00 -1.560047556000000002e+00 7.848335778000000040e+00 0.000000000000000000e+00 -1.386569327999999990e+00 2.577071783000000060e+00 7.522709595000000249e+00
5.994037068999999995e+00 0.000000000000000000e+00 0.000000000000000000e+00 -1.482526151999999930e+00 8.057386313000000300e+00 0.000000000000000000e+00 -1.564638932000000038e+00 2.967468269999999908e+00 7.300461442999999662e+00
6.121118380000000414e+00 0.000000000000000000e+00 0.000000000000000000e+00 -1.488533601000000095e+00 7.938637047000000280e+00 0.000000000000000000e+00 -1.608509055999999937e+00 2.697685059999999968e+00 7.517224790000000212e+00
6.315889815000000240e+00 0.000000000000000000e+00 0.000000000000000000e+00 -1.718163276000000073e+00 8.073289252000000360e+00 0.000000000000000000e+00 -1.504326464999999891e+00 2.602128378999999825e+00 7.415061900000000428e+00
6.184266727999999880e+00 0.000000000000000000e+00 0.000000000000000000e+00 -1.506565498999999919e+00 8.056882090000000218e+00 0.000000000000000000e+00 -1.574808771000000052e+00 2.975899322000000069e+00 7.581476019000000122e+00
