-1.575161000000000033e+00 -1.587666000000000022e+00 -1.359129000000000032e+00 1.332260000000000000e+00 -3.369440000000000213e-01 -1.046929999999999916e+00 -2.812152000000000207e+00 -7.646500000000000519e-02 -9.461960000000000370e-01 -1.067450000000000010e+00 4.724209999999999798e-01 -3.230268000000000139e+00 -6.027289999999999592e-01 6.761260000000000048e-01 5.892399999999999860e-01 -2.392466000000000204e+00 -3.493720000000000159e-01 -5.302470000000000239e-01 1.511279999999999957e+00 9.543150000000000244e-01 -8.768399999999999805e-02 1.240760000000000057e-01 -3.076160000000000005e-01 1.217786999999999953e+00 9.119899999999999674e-01 -1.893029000000000073e+00 1.957300999999999958e+00 9.491039999999999477e-01 1.013487999999999944e+00 -7.672309999999999963e-01 -6.216300000000000159e-01 5.695839999999999792e-01 1.824678000000000022e+00 6.882500000000000284e-01 2.244534999999999947e+00 -1.378659000000000079e+00 -9.483279999999999488e-01 6.471909999999999608e-01 1.251211000000000073e+00 8.628900000000000459e-02 -1.438560000000000061e+00 -7.481719999999999482e-01 2.268999999999999836e-02 -3.300699999999999745e-01 2.562680999999999987e+00 1.308322999999999903e+00 -7.535920000000000396e-01 1.029015000000000013e+00 1.035109000000000057e+00 -1.429794000000000009e+00 -8.151899999999999702e-01 1.362073000000000089e+00 8.602459999999999551e-01 1.553398999999999974e+00 -6.602500000000000036e-01 1.976342999999999961e+00 -5.567029999999999479e-01 -1.034629999999999994e-01 5.941579999999999639e-01 1.124268999999999963e+00 4.283870000000000178e-01 -1.082484000000000002e+00 -2.051040000000000085e-01 -2.164044000000000079e+00 -6.555619999999999781e-01 1.124802999999999997e+00 -7.469900000000000151e-02 1.360667999999999989e+00 -1.428999999999999992e-01 -2.186107999999999940e+00 -1.452954000000000079e+00 -4.526319999999999788e-01 -5.204680000000000417e-01 -1.524089000000000027e+00 6.864800000000000069e-02 -2.303679999999999894e-01 -2.900479999999999725e-01 1.073579999999999951e-01 1.669254999999999933e+00 1.561366999999999949e+00 1.510512999999999995e+00 1.932347000000000037e+00 1.050819999999999949e-01 8.341870000000000118e-01 -1.517959999999999865e-01 -1.719030999999999976e+00 -1.974034000000000066e+00 2.204308999999999852e+00 4.413750000000000173e-01 -1.199195000000000011e+00 5.453700000000000214e-01 1.750375000000000014e+00 -1.314815999999999985e+00
4.061460000000000070e-01 6.737560000000000215e-01 2.905904000000000043e+00 9.779250000000000442e-01 -3.102790000000000270e-01 9.262600000000000000e-02 -2.369000999999999912e+00 -4.702120000000000188e-01 5.070719999999999672e-01 9.995739999999999625e-01 9.224909999999999499e-01 6.254309999999999592e-01 5.136600000000000193e-02 -4.149149999999999783e-01 -1.729176000000000046e+00 4.808939999999999881e-01 1.582972000000000046e+00 1.046546999999999894e+00 3.619680000000000120e-01 -2.187323999999999824e+00 -4.050059999999999771e-01 3.891419999999999879e-01 -3.800910000000000122e-01 -4.157500000000000084e-02 -2.099610000000000087e-01 7.384100000000000108e-01 -3.837670000000000248e-01 -1.284178000000000042e+00 -1.968415999999999944e+00 6.519999999999999754e-03 -3.979572999999999805e+00 8.419839999999999547e-01 -3.199949999999999739e-01 -2.062676999999999872e+00 -3.186280000000000223e-01 2.280116000000000032e+00 -1.487220999999999904e+00 2.467096000000000178e+00 3.987089999999999801e-01 2.082459999999999867e-01 -2.925570000000000115e-01 6.531069999999999931e-01 9.484780000000000433e-01 1.504173999999999900e+00 -3.795357999999999787e+00 2.463074999999999903e+00 9.653070000000000261e-01 -1.913113000000000063e+00 3.239869999999999806e+00 -1.442364999999999897e+00 -1.199880999999999975e+00 1.125510999999999928e+00 -4.548440000000000261e-01 2.710359999999999991e-01 -9.564669999999999561e-01 -1.714868000000000059e+00 2.461253000000000135e+00 -5.057329999999999881e-01 2.708269000000000037e+00 1.328522999999999898e+00 1.354702999999999991e+00 3.166000000000000064e-02 1.425375999999999976e+00 -3.508999999999999897e-01 -7.454990000000000228e-01 7.659299999999999997e-01 1.688455999999999957e+00 -8.779050000000000464e-01 -3.448649999999999771e-01 1.223967000000000027e+00 -1.121242999999999990e+00 -9.173499999999999710e-02 -2.110631000000000146e+00 -6.878119999999999790e-01 7.574119999999999742e-01 1.765357999999999983e+00 4.003800000000000137e-01 -5.445649999999999658e-01 1.987240000000000117e-01 -3.930699999999999750e-01 -9.661659999999999693e-01 -1.425561999999999996e+00 1.088881999999999906e+00 -5.263569999999999638e-01 -3.287149999999999794e-01 -4.319400000000000323e-02 -2.614555999999999880e+00 -4.808839999999999781e-01 2.122219999999999940e-01 2.087026999999999965e+00 -3.318989999999999996e-01 -3.143819999999999948e-01 -2.736473999999999851e+00
-5.221209999999999463e-01 -1.579690000000000039e+00 3.970404999999999962e+00 -6.155850000000000488e-01 2.763932000000000055e+00 -1.782944000000000084e+00 1.842265000000000041e+00 -1.480622000000000105e+00 -1.275506999999999946e+00 -5.339770000000000350e-01 -5.681370000000000031e-01 7.016329999999999512e-01 -1.793799999999999908e-02 -1.436487999999999987e+00 -1.207529999999999992e-01 -1.323688999999999893e+00 -1.789096000000000020e+00 -4.468969999999999887e-01 -1.465891999999999973e+00 8.023320000000000451e-01 -1.300656999999999952e+00 5.563010000000000455e-01 7.733290000000000441e-01 -3.805499999999999855e-02 2.248457999999999846e+00 1.827459999999999918e-01 -3.404519999999999769e-01 -1.797307999999999906e+00 -4.042160000000000197e-01 -5.547480000000000189e-01 5.479099999999999943e-02 -9.184919999999999751e-01 1.640139999999999931e-01 2.208720000000000128e-01 -2.395796999999999954e+00 2.737448999999999799e+00 -1.199839999999999934e-01 -9.146379999999999511e-01 -2.116382999999999903e+00 4.566299999999999804e-01 3.663099999999999690e-02 1.502785999999999955e+00 -4.376439999999999775e-01 -1.302059999999999884e-01 1.507810000000000095e+00 2.017838999999999938e+00 1.877140000000000031e+00 -7.200149999999999606e-01 -3.486349999999999727e-01 5.842760000000000176e-01 -3.789829000000000114e+00 2.225636999999999865e+00 2.288040000000000074e-01 1.240323000000000064e+00 -3.989309999999999801e-01 1.301609999999999934e+00 6.424849999999999728e-01 -2.470785999999999927e+00 -6.779530000000000278e-01 1.559620000000000006e+00 -1.673564999999999969e+00 8.334500000000000242e-02 6.204920000000000435e-01 -1.144069999999999920e+00 1.452752999999999961e+00 -1.314819999999999878e-01 8.195240000000000302e-01 6.277319999999999567e-01 8.477919999999999900e-01 -9.690769999999999662e-01 -1.790672000000000041e+00 1.963441999999999910e+00 2.915734000000000048e+00 1.725948999999999955e+00 9.175560000000000382e-01 -1.206026000000000042e+00 2.096473000000000031e+00 -1.906517999999999935e+00 -1.283805000000000085e+00 -5.509119999999999573e-01 -1.633870000000000045e-01 8.231140000000000123e-01 8.957559999999999967e-01 -6.433500000000000330e-02 4.116029999999999966e-01 -1.989220999999999906e+00 -1.374125999999999959e+00 1.937977999999999978e+00 8.104689999999999950e-01 -1.117049999999999987e-01 -2.017120000000000024e-01 3.828610000000000069e-01 -2.138015000000000221e+00
7.806220000000000381e-01 7.349569999999999714e-01 4.793209999999999971e-01 -1.323655999999999944e+00 2.023956999999999784e+00 1.240952999999999973e+00 -5.316560000000000175e-01 -7.619489999999999874e-01 -1.666447000000000012e+00 1.175316999999999945e+00 1.689918999999999949e+00 7.171650000000000524e-01 -1.351825999999999972e+00 2.535300000000000054e-02 -7.471790000000000376e-01 -2.519292000000000087e+00 -2.799729000000000134e+00 1.809209000000000067e+00 -1.292326000000000086e+00 -1.061677999999999900e+00 2.452497000000000149e+00 -2.439299999999999802e+00 9.129400000000000015e-02 3.879544999999999799e+00 -7.236329999999999707e-01 -2.285413000000000139e+00 1.628500000000000086e-02 -4.496839999999999726e-01 1.759818000000000104e+00 1.571249999999999869e-01 -3.438300000000000245e-01 -4.872380000000000044e-01 1.538451000000000013e+00 3.111791000000000196e+00 -1.446870000000000100e+00 -7.730550000000000477e-01 -1.969100000000000017e-02 -2.078689999999999927e+00 -2.381019000000000219e+00 1.590835999999999917e+00 -2.772632000000000208e+00 -4.750789999999999735e-01 -3.560309999999999864e+00 3.210011000000000170e+00 -5.587779999999999969e-01 -2.372212999999999905e+00 -1.069077999999999973e+00 1.148873000000000033e+00 -5.240810000000000191e-01 -3.047759999999999914e-01 4.436570000000000236e-01 -1.655167000000000055e+00 2.070193000000000172e+00 -1.812289000000000039e+00 -1.289009999999999878e-01 2.317473000000000116e+00 1.033652000000000015e+00 -4.204390000000000072e-01 -2.435496000000000105e+00 -1.072030000000000066e-01 1.574808999999999903e+00 -1.119108999999999909e+00 2.494781999999999833e+00 1.715467000000000075e+00 1.254909999999999970e+00 -6.493659999999999988e-01 2.380491000000000135e+00 2.332402999999999782e+00 1.644579999999999931e+00 -1.657099999999999962e-01 4.124300000000000188e-01 -3.723650999999999822e+00 3.305959000000000092e+00 1.724534000000000011e+00 -1.149499000000000049e+00 -1.835261000000000031e+00 -7.321299999999999475e-01 7.005599999999999328e-02 3.849794999999999856e+00 -4.108519999999999950e-01 6.504170000000000229e-01 1.743524999999999991e+00 -5.618379999999999486e-01 -2.830114000000000019e+00 5.537640000000000340e-01 -1.106981999999999911e+00 -5.441510000000000513e-01 9.266459999999999697e-01 2.960561000000000220e+00 -1.256079999999999974e-01 -1.052044999999999897e+00 -1.173353000000000090e+00 -2.233131999999999895e+00
-6.219299999999999828e-01 -1.849690999999999974e+00 1.332929999999999948e-01 -1.371890000000000054e+00 4.058889999999999998e-01 3.300581999999999905e+00 -1.047188000000000008e+00 -3.298539999999999806e-01 -5.747339999999999671e-01 1.497403999999999957e+00 -3.037732000000000099e+00 3.560240000000000071e-01 -1.177017999999999898e+00 -9.569149999999999601e-01 -6.427220000000000155e-01 3.142275999999999847e+00 -9.640990000000000393e-01 1.633831000000000033e+00 6.162149999999999572e-01 -3.116175999999999835e+00 -1.058713999999999933e+00 -1.429653999999999980e+00 2.750330000000000275e-01 -4.061830000000000163e-01 -7.333530000000000326e-01 -2.668921000000000099e+00 -1.833564999999999889e+00 -3.324256999999999795e+00 1.449962999999999891e+00 -6.756229999999999736e-01 -1.557288999999999923e+00 6.919549999999999867e-01 5.249169999999999670e-01 1.836967000000000017e+00 2.332529999999999881e-01 -9.818580000000000085e-01 8.018429999999999724e-01 5.975549999999999473e-01 1.631305999999999923e+00 6.300780000000000269e-01 -1.052008999999999972e+00 -9.213000000000000078e-01 1.598913999999999946e+00 2.273985000000000145e+00 -1.908500000000000127e-02 2.105922000000000072e+00 2.063743000000000105e+00 -1.781830999999999943e+00 1.207664999999999988e+00 -9.229239999999999666e-01 3.068200000000000094e-02 2.759384999999999977e+00 -2.656543000000000099e+00 4.125500000000000000e-02 -1.983590000000000075e-01 1.791320999999999941e+00 6.110039999999999916e-01 -4.306273000000000017e+00 4.453179999999999916e-01 1.971738999999999908e+00 -1.143567999999999918e+00 -1.808693000000000106e+00 1.844432000000000071e+00 5.005490000000000217e-01 6.770840000000000192e-01 -2.461240000000000094e-01 2.300502999999999965e+00 -3.010470000000000090e-01 -9.794600000000000528e-02 -7.013300000000000090e-02 8.625399999999999734e-01 1.103787999999999991e+00 -7.682470000000000132e-01 2.130596000000000156e+00 -2.171292999999999918e+00 1.454043999999999892e+00 2.492843000000000142e+00 7.525830000000000020e-01 -1.163810999999999929e+00 3.872530000000000139e-01 4.539699999999999985e-02 -5.255490000000000439e-01 9.145440000000000236e-01 -4.644429999999999947e-01 -1.193346999999999936e+00 8.789510000000000378e-01 -3.056064999999999809e+00 -6.018480000000000496e-01 1.804470000000000018e+00 1.105310000000000015e+00 7.819490000000000052e-01 -7.116949999999999665e-01 -1.546579999999999899e-01
1.583291000000000004e+00 1.074057000000000039e+00 -8.629250000000000531e-01 -2.285499000000000169e+00 9.852629999999999999e-01 1.211032000000000108e+00 1.273380000000000067e-01 -2.153819999999999901e-01 -5.076920000000000321e-01 2.761606000000000005e+00 -2.268085999999999824e+00 -7.270919999999999606e-01 -2.514609999999999901e-01 3.951057000000000041e+00 -1.719997999999999916e+00 1.748410000000000020e+00 6.259080000000000199e-01 -7.944759999999999600e-01 1.265738999999999947e+00 2.411220000000000030e-01 3.665979999999999794e-01 -7.849099999999999966e-01 -9.833260000000000334e-01 -1.277465000000000073e+00 8.222329999999999917e-01 2.243214000000000041e+00 1.641831000000000040e+00 -9.432690000000000241e-01 -2.560220000000000273e-01 4.871559999999999779e-01 9.511899999999999800e-01 -9.129779999999999562e-01 -5.172919999999999741e-01 1.623380000000000045e+00 -6.360010000000000385e-01 -1.006404000000000076e+00 -6.520550000000000512e-01 1.926809999999999912e-01 1.250569000000000042e+00 4.345600000000000018e-01 1.591930000000000012e-01 6.033300000000000329e-01 -1.196017000000000108e+00 -3.383070000000000244e-01 -1.407197999999999949e+00 -2.256845999999999908e+00 5.826059999999999572e-01 5.282350000000000101e-01 -1.050567999999999946e+00 -3.180160000000000209e-01 -9.941179999999999461e-01 3.064885999999999999e+00 -1.071641999999999983e+00 -1.950429999999999942e-01 -1.652439999999999909e+00 -6.704200000000000159e-01 -1.483935999999999922e+00 6.783299999999999885e-01 2.167783000000000015e+00 7.839970000000000550e-01 -1.329140000000000044e-01 5.779000000000000109e-02 9.407300000000000384e-02 -1.649726999999999943e+00 2.128710000000000047e-01 -3.220486999999999878e+00 2.592257000000000033e+00 -2.945240000000000080e-01 -5.958940000000000348e-01 -1.661779999999999924e-01 -1.114539999999999975e-01 1.220201000000000091e+00 1.772764000000000006e+00 5.155300000000000160e-02 1.159300000000000053e-01 -2.802487999999999868e+00 3.576590000000000047e-01 6.693970000000000198e-01 -2.491399999999999865e-02 9.325799999999999645e-01 9.985840000000000272e-01 -1.869709000000000065e+00 -5.998010000000000286e-01 1.370244999999999935e+00 -2.675231000000000137e+00 1.978960999999999970e+00 8.621830000000000327e-01 2.127777000000000029e+00 -5.101458000000000048e+00 2.212223999999999968e+00 -1.159535999999999900e+00 -2.036884000000000139e+00 8.944330000000000336e-01
2.136210000000000053e-01 3.397317999999999838e+00 -3.384921999999999986e+00 -1.243170000000000108e+00 5.087199999999999500e-01 -1.640953000000000106e+00 -1.119968000000000075e+00 2.259299999999999850e-02 -1.019393999999999911e+00 1.484866999999999937e+00 1.183796999999999988e+00 -2.344549000000000216e+00 -2.293508000000000102e+00 -1.406813000000000091e+00 1.608983999999999970e+00 -2.704289000000000165e+00 -6.760129999999999750e-01 5.105490000000000306e-01 -2.142494999999999816e+00 -1.187179999999999902e+00 3.840279999999999805e-01 -4.371880000000000210e-01 1.030850999999999962e+00 5.528720000000000301e-01 2.389752000000000098e+00 -8.437010000000000343e-01 7.722059999999999480e-01 1.135453000000000046e+00 1.121202000000000032e+00 -1.333553999999999906e+00 -1.812179999999999902e-01 -1.003576999999999941e+00 8.388670000000000293e-01 -6.109200000000000047e-02 4.115559999999999774e-01 7.260879999999999557e-01 2.592408999999999963e+00 1.468593999999999955e+00 -2.202490000000000003e-01 -1.938020000000000076e+00 3.910730000000000040e-01 -1.250343999999999900e+00 7.094699999999999618e-02 2.823729999999999851e-01 3.145291999999999977e+00 2.964891000000000165e+00 -2.735250000000000181e-01 -4.211650000000000116e-01 -2.195444000000000173e+00 5.065009999999999790e-01 9.780980000000000230e-01 -1.323704999999999909e+00 7.893839999999999746e-01 1.875625000000000098e+00 2.839849000000000068e+00 3.891160000000000174e-01 6.015779999999999461e-01 2.748799999999999855e-02 -1.178655999999999926e+00 1.119323999999999986e+00 1.062775999999999943e+00 -3.613596999999999948e+00 -5.426050000000000040e-01 7.396890000000000409e-01 -2.447360000000000091e-01 -8.383720000000000061e-01 -2.785489999999999799e+00 2.908091999999999899e+00 -4.433440000000000158e-01 -1.574840000000000129e-01 5.017080000000000428e-01 -9.303129999999999455e-01 5.613920000000000021e-01 3.524010000000000198e-01 8.091009999999999591e-01 -1.363189999999999957e-01 -4.565510999999999875e+00 9.497200000000000086e-02 -2.587585999999999942e+00 -1.360686999999999980e+00 2.913720000000000199e-01 3.459983999999999948e+00 8.053569999999999895e-01 5.001599999999999796e-02 1.190315000000000012e+00 -8.400490000000000457e-01 1.442919999999999980e+00 3.370549999999999935e-01 1.569649999999999990e+00 -1.444670000000000121e-01 2.364870000000000028e-01 -4.462389999999999968e-01 -1.287660000000000027e+00
5.823279999999999568e-01 1.132409999999999944e-01 -3.021969999999999934e-01 -2.201980000000000048e-01 2.372960000000000069e-01 8.241700000000000415e-02 1.742499999999999882e-01 4.901079999999999881e-01 -2.601419999999999844e-01 4.336090000000000222e-01 4.275499999999999856e-01 -1.817290000000000016e-01 -1.856540000000000135e-01 -3.332769999999999899e-01 -4.297460000000000169e-01 8.145800000000000263e-02 2.412299999999999861e-02 -1.632210000000000050e-01 -1.387440000000000062e-01 -1.730599999999999847e-02 -2.901360000000000050e-01 1.015039999999999970e-01 1.917659999999999920e-01 9.527099999999999458e-02 -3.027549999999999963e-01 2.777160000000000184e-01 1.066249999999999976e-01 1.009703999999999935e+00 -3.468769999999999909e-01 -1.560580000000000023e-01 2.907799999999999968e-02 -1.131399999999999940e-02 3.555440000000000267e-01 -5.569760000000000266e-01 -8.367620000000000058e-01 -1.895120000000000138e-01 2.825900000000000079e-01 1.679900000000000004e-01 3.602040000000000242e-01 9.861000000000000321e-02 -3.341950000000000198e-01 -7.525389999999999580e-01 -1.105000000000000079e-02 -6.456099999999999339e-02 5.890220000000000455e-01 -4.513590000000000102e-01 -6.198550000000000448e-01 -1.449969999999999870e-01 2.849650000000000238e-01 -3.657650000000000068e-01 -7.252999999999999899e-03 -8.921300000000000063e-02 6.489589999999999526e-01 7.008720000000000505e-01 2.212669999999999915e-01 3.480170000000000208e-01 -1.895610000000000073e-01 4.062330000000000108e-01 7.278989999999999627e-01 5.801239999999999730e-01 -3.349539999999999740e-01 -2.172560000000000047e-01 -6.979910000000000281e-01 -8.937699999999999534e-01 -5.476600000000000218e-02 7.666979999999999906e-01 -3.163230000000000208e-01 -1.838930000000000009e-01 1.297310000000000130e-01 3.319230000000000236e-01 4.025369999999999782e-01 3.424519999999999786e-01 1.207270000000000010e-01 -2.349680000000000102e-01 -5.113729999999999665e-01 1.109259999999999968e-01 -1.150530000000000025e-01 9.683700000000000641e-02 -2.683980000000000254e-01 -2.836699999999999777e-01 -4.414569999999999883e-01 -2.616660000000000097e-01 -6.772899999999999754e-02 5.133360000000000145e-01 -8.054000000000000395e-03 8.792300000000000115e-02 -3.487399999999999944e-01 -1.969100000000000017e-02 3.288499999999999757e-02 4.673260000000000192e-01 -2.103649999999999964e-01 -9.076399999999999746e-02 -1.198059999999999958e-01
1.841319999999999901e-01 8.360210000000000141e-01 1.477900999999999909e+00 1.266820000000000057e+00 6.387859999999999649e-01 1.778386999999999940e+00 -5.956719999999999793e-01 -8.673469999999999791e-01 -1.271376000000000062e+00 3.396793000000000173e+00 9.390199999999999658e-01 -2.015220999999999929e+00 -1.519076000000000093e+00 1.326256000000000101e+00 1.549031000000000047e+00 1.773686000000000096e+00 -2.259063999999999961e+00 -1.457589000000000024e+00 1.673494999999999955e+00 2.604467999999999783e+00 -2.914681999999999995e+00 -2.624515000000000153e+00 -4.485739999999999728e-01 -6.888809999999999656e-01 -1.168438000000000088e+00 1.726920000000000122e-01 -5.411070000000000046e-01 1.260256999999999961e+00 -2.960119999999999973e-01 4.969999999999999592e-03 1.232282000000000100e+00 7.832219999999999738e-01 6.839169999999999972e-01 1.800221999999999989e+00 1.535776000000000030e+00 -2.045272999999999897e+00 2.029249999999999943e-01 -3.001530000000000031e-01 3.282761999999999958e+00 -1.062173999999999952e+00 1.700534999999999908e+00 -3.088819999999999899e-01 2.017819999999999891e-01 3.689509999999999734e-01 6.373229999999999729e-01 -1.847315000000000040e+00 2.251399999999999929e-02 4.878439999999999999e-01 9.407349999999999879e-01 -1.123189999999999911e+00 -3.173929999999999807e-01 -7.784990000000000521e-01 6.378499999999999448e-02 6.237000000000000183e-02 4.158900000000000097e-02 2.857905999999999835e+00 -7.776800000000000379e-02 8.089880000000000404e-01 -3.745769999999999933e-01 -1.569039999999999879e-01 -9.262709999999999555e-01 -2.521231999999999918e+00 -1.885442999999999980e+00 6.800000000000000488e-01 -1.332573999999999925e+00 1.320473999999999926e+00 -1.728274000000000088e+00 6.810869999999999980e-01 3.131309999999999927e-01 -1.127286000000000010e+00 -1.496540999999999899e+00 3.118060000000000276e-01 -2.520000000000000018e-01 -1.064534000000000091e+00 -2.151460000000000039e-01 -2.779770000000000074e+00 -1.354937999999999976e+00 2.376592000000000038e+00 -1.067169999999999952e+00 -6.820810000000000484e-01 5.848029999999999617e-01 7.961719999999999908e-01 -1.854268000000000027e+00 5.272550000000000292e-01 -1.195613999999999955e+00 1.809404000000000012e+00 -2.213705000000000034e+00 2.355655000000000054e+00 -1.052826000000000040e+00 -3.429889999999999883e-01 5.653899999999999898e-02 6.874919999999999920e-01 1.053792000000000062e+00
6.817919999999999536e-01 8.895400000000000529e-02 -1.065835000000000088e+00 5.676280000000000214e-01 -1.066993999999999998e+00 -6.360930000000000195e-01 1.353947999999999929e+00 1.101631999999999945e+00 -1.148798999999999904e+00 -6.708439999999999959e-01 -2.318493999999999833e+00 -3.976850000000000107e-01 6.399799999999999933e-01 -1.204291999999999918e+00 -8.025400000000000589e-02 1.289277000000000006e+00 -1.312092999999999954e+00 -6.844940000000000468e-01 -1.060019000000000045e+00 1.317117000000000093e+00 -6.082440000000000069e-01 -6.713820000000000343e-01 5.409479999999999844e-01 -1.316245000000000109e+00 8.163289999999999713e-01 1.599973000000000090e+00 4.853439999999999976e-01 1.008293000000000106e+00 -1.044974000000000069e+00 -1.320073000000000052e+00 -2.050180000000000113e+00 8.121580000000000465e-01 -5.045859999999999790e-01 -1.037903000000000020e+00 2.387839999999999963e-01 -1.204776999999999987e+00 -2.449820000000000053e-01 -4.947630000000000083e-01 1.251799999999999961e-02 -8.140100000000000113e-01 -1.262156999999999973e+00 7.505199999999999372e-02 -1.580384999999999929e+00 -1.203562000000000021e+00 -5.310080000000000355e-01 4.322110000000000118e-01 4.954350000000000143e-01 -5.473940000000000472e-01 -4.526740000000000208e-01 -9.832699999999999774e-02 -2.253300000000000025e-01 5.936999999999999916e-02 -1.182404000000000011e+00 4.980609999999999760e-01 1.750480000000000036e+00 -1.309699999999999927e-02 1.358370999999999995e+00 -1.062503999999999893e+00 7.375639999999999974e-01 4.173669999999999880e-01 -1.395243000000000011e+00 9.182949999999999724e-01 5.722979999999999734e-01 3.447020000000000084e-01 4.948960000000000026e-01 4.585960000000000036e-01 2.310007999999999839e+00 -1.719759999999999955e+00 9.760050000000000114e-01 1.917512000000000105e+00 1.428374000000000033e+00 -6.398869999999999836e-01 -2.021485999999999894e+00 3.359710000000000196e-01 1.402259999999999895e-01 -8.091429999999999456e-01 -6.043840000000000323e-01 1.824648000000000048e+00 -1.863734000000000002e+00 1.442390000000000061e-01 6.861760000000000081e-01 -2.166839999999999877e-01 1.591255000000000086e+00 5.451669999999999572e-01 1.004955999999999960e+00 9.107210000000000027e-01 1.588826000000000072e+00 -3.589709999999999845e-01 -1.123002999999999973e+00 7.993699999999999417e-02 2.133656999999999915e+00 1.891988000000000003e+00 1.192110000000000003e+00
7.206360000000000543e-01 -2.199689999999999979e-01 1.619960000000000067e+00 -5.294900000000000162e-01 -1.428525000000000045e+00 -3.691050000000000164e-01 -6.896679999999999477e-01 2.674730000000000163e-01 -8.705400000000000638e-02 -1.318809999999999982e-01 -3.272010000000000196e-01 2.136210999999999860e+00 -8.484890000000000487e-01 -7.893970000000000153e-01 -2.468829999999999913e-01 2.029409999999999936e+00 -6.161809999999999787e-01 1.090440000000000020e-01 -3.016900000000000137e-01 -1.788785999999999987e+00 -2.457280000000000020e-01 -5.637400000000000189e-01 1.086457000000000006e+00 -1.262167000000000039e+00 1.301940000000000042e-01 -1.197074999999999889e+00 1.398409999999999931e-01 9.273559999999999581e-01 -1.601687000000000083e+00 -1.083471999999999991e+00 4.633579999999999921e-01 2.591269999999999962e-01 4.307139999999999858e-01 -7.947159999999999780e-01 1.175189999999999985e-01 -1.426644999999999941e+00 1.067873999999999990e+00 1.807917999999999914e+00 -1.275252999999999970e+00 4.859510000000000218e-01 4.343989999999999796e-01 1.061620000000000008e+00 -5.386459999999999582e-01 1.279767000000000099e+00 -8.232429999999999470e-01 4.314649999999999874e-01 -2.532550000000000079e+00 1.521730000000000027e+00 -8.147130000000000205e-01 -6.744569999999999732e-01 -2.469040000000000123e-01 -1.831250000000000100e-01 1.873920000000000030e-01 -2.879369999999999985e-01 -3.688379999999999992e-01 6.025599999999999706e-02 -1.940800000000000025e-01 1.054661999999999988e+00 2.810887999999999831e+00 -5.516280000000000072e-01 7.099999999999999367e-02 7.375770000000000381e-01 4.271500000000000297e-02 -6.829140000000000210e-01 6.121600000000000374e-01 1.247325999999999935e+00 4.326599999999999890e-01 -1.520283999999999969e+00 6.268249999999999655e-01 6.270000000000000399e-03 3.609999999999999928e-03 -2.802935999999999872e+00 -2.016694999999999904e+00 9.336100000000000509e-01 -6.210790000000000477e-01 3.834509999999999863e-01 1.233981999999999912e+00 1.688703000000000065e+00 1.132679999999999909e+00 -6.015930000000000444e-01 1.321160000000000112e-01 -6.147329999999999739e-01 -1.021529999999999938e-01 -1.747819000000000011e+00 6.290229999999999988e-01 1.721969999999999890e-01 1.114430999999999949e+00 1.898420000000000107e-01 1.046505999999999936e+00 3.941870000000000096e-01 -1.076497000000000037e+00 3.490199999999999969e-01 1.006510000000000016e+00
-1.409526000000000057e+00 -2.752749999999999919e-01 6.559399999999999953e-02 -7.897960000000000536e-01 1.719209999999999905e-01 -5.908470000000000111e-01 8.792100000000000470e-01 -2.226819999999999911e-01 -2.155999999999999930e-02 5.397499999999999520e-01 -6.823500000000000121e-01 -1.472131999999999996e+00 8.862900000000000222e-01 7.465770000000000461e-01 3.193880000000000052e-01 9.831640000000000379e-01 8.955399999999999472e-02 -1.602705999999999964e+00 4.165070000000000161e-01 8.157959999999999656e-01 5.542179999999999884e-01 2.035629999999999939e-01 -5.714129999999999487e-01 7.029649999999999510e-01 3.378090000000000259e-01 4.056350000000000233e-01 1.088127999999999984e+00 -6.886200000000000099e-01 4.377949999999999897e-01 -6.894010000000000415e-01 -8.062000000000000277e-01 -1.045120999999999967e+00 1.131780999999999926e+00 -8.525960000000000205e-01 -4.475310000000000121e-01 9.053639999999999466e-01 1.172997999999999985e+00 -1.253660000000000052e-01 7.084859999999999491e-01 2.159700000000000161e-02 -3.963160000000000016e-01 -1.347510000000000097e-01 3.677489999999999926e-01 1.697990000000000055e-01 -9.889609999999999790e-01 -1.699683999999999973e+00 -4.661830000000000140e-01 -7.283420000000000449e-01 -8.588750000000000551e-01 -3.468899999999999761e-01 -2.058825999999999823e+00 2.453694000000000042e+00 -7.036249999999999449e-01 1.080649999999999944e-01 3.044259999999999744e-01 1.435230999999999923e+00 8.662239999999999940e-01 -1.530809999999999949e-01 2.099752000000000063e+00 1.177064000000000110e+00 -1.740216999999999903e+00 -9.707339999999999858e-01 -1.579302999999999901e+00 6.228620000000000267e-01 -9.142599999999999338e-02 1.646050999999999931e+00 8.160009999999999764e-01 8.296339999999999826e-01 5.254760000000000542e-01 1.055214000000000096e+00 -1.064459999999999962e+00 -1.951960000000000084e-01 -7.282020000000000159e-01 -1.250798999999999994e+00 -6.089020000000000543e-01 -3.091479999999999784e-01 -1.225651999999999964e+00 5.439289999999999958e-01 1.157051999999999969e+00 1.407413000000000025e+00 1.650099999999999900e-01 5.205429999999999779e-01 1.356781999999999933e+00 1.035029999999999895e+00 -1.617288999999999977e+00 8.317099999999999493e-01 -1.407132000000000049e+00 -1.496820000000000039e+00 -8.013010000000000410e-01 4.798749999999999960e-01 4.116239999999999899e-01 -1.104760000000000048e-01 5.540799999999999892e-02