6.206551863999999696e+00 0.000000000000000000e+00 0.000000000000000000e+00 -1.463165913999999956e+00 7.912387875000000292e+00 0.000000000000000000e+00 -1.551062675000000057e+00 2.574979281000000064e+00 7.741485436999999692e+00
6.239469895000000044e+00 0.000000000000000000e+00 0.000000000000000000e+00 -1.701397829000000028e+00 8.215351374999999123e+00 0.000000000000000000e+00 -1.695318043999999968e+00 2.683221889999999998e+00 7.527125807000000002e+00
6.137875016999999822e+00 0.000000000000000000e+00 0.000000000000000000e+00 -1.253161830999999893e+00 7.846958089000000136e+00 0.000000000000000000e+00 -1.331497216000000039e+00 2.729549326999999970e+00 7.694931551999999897e+00
6.064847653000000172e+00 0.000000000000000000e+00 0.000000000000000000e+00 -1.497972926999999954e+00 8.009614687999999205e+00 0.000000000000000000e+00 -1.588208819999999966e+00 2.586881047999999961e+00 7.418921401000000415e+00
6.225437622000000282e+00 0.000000000000000000e+00 0.000000000000000000e+00 -1.682949009999999967e+00 8.030490718999999444e+00 0.000000000000000000e+00 -1.916034156999999905e+00 3.124411413999999887e+00 7.690583178999999880e+00
6.248072781000000298e+00 0.000000000000000000e+00 0.000000000000000000e+00 -1.685671574999999978e+00 7.961727360000000253e+00 0.000000000000000000e+00 -1.583754080999999925e+00 2.768021414000000124e+00 7.856017461000000424e+00
6.210421205000000278e+00 0.000000000000000000e+00 0.000000000000000000e+00 -1.409732811000000030e+00 8.086788465999999787e+00 0.000000000000000000e+00 -1.481239318999999943e+00 2.722386252000000173e+00 7.666222881999999572e+00
6.165022678999999783e+00 0.000000000000000000e+00 0.000000000000000000e+00 -1.611593806999999989e+00 8.208295782000000429e+00 0.000000000000000000e+00 -1.566986205000000076e+00 2.621887078999999954e+00 7.822214553000000237e+00
6.043127869000000096e+00 0.000000000000000000e+00 0.000000000000000000e+00 -1.490752907999999932e+00 7.939364835000000120e+00 0.000000000000000000e+00 -1.518788086000000037e+00 2.534373313000000127e+00 7.529708255000000072e+00
6.368372435999999581e+00 0.000000000000000000e+00 0.000000000000000000e+00 -1.655964274000000014e+00 7.931090646000000355e+00 0.000000000000000000e+00 -1.827071037000000064e+00 2.511635474000000201e+00 7.572799106999999807e+00
6.137865309000000380e+00 0.000000000000000000e+00 0.000000000000000000e+00 -1.558147479000000057e+00 8.174990926999999630e+00 0.000000000000000000e+00 -1.572267832000000087e+00 2.774337429000000022e+00 7.648497620999999747e+00
6.059303929999999561e+00 0.000000000000000000e+00 0.000000000000000000e+00 -1.448986023000000012e+00 8.114626550000000549e+00 0.000000000000000000e+00 -1.481245001000000006e+00 2.417364318000000178e+00 7.609814593000000293e+00
6.093009552999999912e+00 0.000000000000000000e+00 0.000000000000000000e+00 -1.608376242000000067e+00 7.971159731000000193e+00 0.000000000000000000e+00 -1.627554214999999971e+00 2.612375340999999906e+00 7.444780210000000231e+00
6.309019734999999685e+00 0.000000000000000000e+00 0.000000000000000000e+00 -1.508758486000000065e+00 8.151880536000000177e+00 0.000000000000000000e+00 -1.507622795999999932e+00 2.591178329999999974e+00 7.834827000999999846e+00
6.092346294000000384e+00 0.000000000000000000e+00 0.000000000000000000e+00 -1.527075723000000051e+00 8.031234524000000263e+00 0.000000000000000000e+00 -1.462383994999999937e+00 2.634311985000000078e+00 7.506161140999999759e+00
6.403962628000000379e+00 0.000000000000000000e+00 0.000000000000000000e+00 -1.530241505000000002e+00 8.184549167000000125e+00 0.000000000000000000e+00 -1.568714629000000027e+00 2.582626856000000082e+00 7.589480503999999961e+00
6.012497010999999780e+00 0.000000000000000000e+00 0.000000000000000000e+00 -1.564855810000000069e+00 8.184805017000000404e+00 0.000000000000000000e+00 -1.711640422000000106e+00 2.928338479999999855e+00 7.671320861999999963e+00
6.070995530000000251e+00 0.000000000000000000e+00 0.000000000000000000e+00 -1.510144182999999973e+00 7.931731371999999780e+00 0.000000000000000000e+00 -1.566392312999999925e+00 2.581349345000000017e+00 7.520294958000000030e+00
6.291342442999999562e+00 0.000000000000000000e+00 0.000000000000000000e+00 -1.598217824000000009e+00 8.171052622999999571e+00 0.000000000000000000e+00 -1.478775388999999940e+00 2.617342745000000193e+00 7.876454502999999718e+00
6.149170482999999798e+00 0.000000000000000000e+00 0.000000000000000000e+00 -1.603108851000000001e+00 8.017984720999999482e+00 0.000000000000000000e+00 -1.544170942999999907e+00 2.809171351999999899e+00 7.578487477000000361e+00
6.259554921000000327e+00 0.000000000000000000e+00 0.000000000000000000e+00 -1.600131807999999989e+00 8.131312902999999537e+00 0.000000000000000000e+00 -1.458556739000000047e+00 2.445202994999999824e+00 7.608831398999999607e+00
6.109764602000000266e+00 0.000000000000000000e+00 0.000000000000000000e+00 -1.581770625000000097e+00 7.941518063000000183e+00 0.000000000000000000e+00 -1.488454010999999966e+00 2.543058085999999829e+00 7.614574053000000120e+00
6.210491249000000380e+00 0.000000000000000000e+00 0.000000000000000000e+00 -1.400433876999999994e+00 8.117907913999999892e+00 0.000000000000000000e+00 -1.630838744999999923e+00 2.696699558000000163e+00 7.691801309999999781e+00
6.441006570999999958e+00 0.000000000000000000e+00 0.000000000000000000e+00 -1.577625988999999951e+00 8.042469266999999533e+00 0.000000000000000000e+00 -1.596277983000000011e+00 2.564318451000000110e+00 7.643304467000000102e+00
6.118539057999999642e+00 0.000000000000000000e+00 0.000000000000000000e+00 -1.432257869999999933e+00 8.109434058999999806e+00 0.000000000000000000e+00 -1.574566313000000051e+00 2.636147274999999901e+00 7.526110775000000253e+00
6.310228365000000395e+00 0.000000000000000000e+00 0.000000000000000000e+00 -1.695150651000000064e+00 8.213017028999999525e+00 0.000000000000000000e+00 -1.892037224000000073e+00 2.793139043000000044e+00 7.681435644999999646e+00
6.108381451999999712e+00 0.000000000000000000e+00 0.000000000000000000e+00 -1.533160110999999937e+00 7.994104862999999561e+00 0.000000000000000000e+00 -1.446085288999999996e+00 2.851145657000000000e+00 7.724672460999999934e+00
6.399071638999999756e+00 0.000000000000000000e+00 0.000000000000000000e+00 -1.516017664000000043e+00 8.009919067000000226e+00 0.000000000000000000e+00 -1.267800177000000028e+00 2.510813018999999979e+00 7.775887030999999894e+00
6.409453816000000081e+00 0.000000000000000000e+00 0.000000000000000000e+00 -1.501733718000000106e+00 7.851004468000000180e+00 0.000000000000000000e+00 -1.719251872000000070e+00 2.946596690999999879e+00 7.620653455000000243e+00
6.264143236999999864e+00 0.000000000000000000e+00 0.000000000000000000e+00 -1.620371092999999929e+00 8.137125875000000619e+00 0.000000000000000000e+00 -1.667568986999999892e+00 2.627190952999999940e+00 7.688524924000000205e+00
6.054962270999999951e+00 0.000000000000000000e+00 0.000000000000000000e+00 -1.637971078999999941e+00 8.043253576999999765e+00 0.000000000000000000e+00 -1.603373557999999921e+00 2.786457374999999903e+00 7.589745784999999856e+00
6.131206243000000278e+00 0.000000000000000000e+00 0.000000000000000000e+00 -1.536654165999999933e+00 7.967262509000000215e+00 0.000000000000000000e+00 -1.381223542999999943e+00 2.732318493999999820e+00 7.619504773000000064e+00
6.208077087000000382e+00 0.000000000000000000e+00 0.000000000000000000e+00 -1.565484912000000062e+00 7.985692569000000240e+00 0.000000000000000000e+00 -1.557936047999999962e+00 2.634888144000000043e+00 7.629917097999999953e+00
6.127419678999999952e+00 0.000000000000000000e+00 0.000000000000000000e+00 -1.590595447999999967e+00 8.115809658999999954e+00 0.000000000000000000e+00 -1.666111753999999889e+00 2.659699214999999839e+00 7.640351147999999704e+00
6.029639462999999644e+00 0.000000000000000000e+00 0.000000000000000000e+00 4.500654199000000411e+00 7.766125652999999573e+00 0.000000000000000000e+00 4.558939919000000174e+00 2.784922090999999877e+00 7.488195304999999635e+00
6.203165212000000039e+00 0.000000000000000000e+00 0.000000000000000000e+00 -1.297552905999999950e+00 8.011249575000000789e+00 0.000000000000000000e+00 -1.500466676999999915e+00 2.745394532999999804e+00 7.539692732999999869e+00
6.091591561000000432e+00 0.000000000000000000e+00 0.000000000000000000e+00 -1.554670584999999994e+00 8.006239917000000261e+00 0.000000000000000000e+00 -1.571897061999999901e+00 2.642814426000000161e+00 7.548089938999999582e+00
6.163079589999999719e+00 0.000000000000000000e+00 0.000000000000000000e+00 -1.630030985999999960e+00 8.008544534000000326e+00 0.000000000000000000e+00 -1.495368934000000039e+00 2.896595334000000133e+00 7.733572043999999757e+00
6.278916173999999906e+00 0.000000000000000000e+00 0.000000000000000000e+00 -1.618112277999999904e+00 8.294804197999999573e+00 0.000000000000000000e+00 -1.657577145999999946e+00 2.759502012000000004e+00 7.827544253000000118e+00
6.276900734999999898e+00 0.000000000000000000e+00 0.000000000000000000e+00 -1.611006289000000091e+00 8.229364941000000044e+00 0.000000000000000000e+00 -1.661713267000000105e+00 2.801333330999999927e+00 7.659576477999999966e+00
6.193862760000000023e+00 0.000000000000000000e+00 0.000000000000000000e+00 -1.501104752999999903e+00 8.030730996999999149e+00 0.000000000000000000e+00 -1.782195957999999969e+00 2.682320932000000102e+00 7.539880012000000242e+00
6.061037058000000144e+00 0.000000000000000000e+00 0.000000000000000000e+00 -1.508879821999999926e+00 7.949755249999999940e+00 0.000000000000000000e+00 -1.544215716999999932e+00 2.589572591000000035e+00 7.536152589000000290e+00
6.195711228000000403e+00 0.000000000000000000e+00 0.000000000000000000e+00 -1.470630989000000000e+00 8.079911512000000684e+00 0.000000000000000000e+00 -1.507892876999999965e+00 2.690722443999999935e+00 7.570794869000000205e+00
6.158948567999999568e+00 0.000000000000000000e+00 0.000000000000000000e+00 -1.479427792000000075e+00 7.964082427000000131e+00 0.000000000000000000e+00 -1.480440951000000060e+00 2.819898058000000152e+00 7.739289484999999580e+00
6.140250499000000417e+00 0.000000000000000000e+00 0.000000000000000000e+00 -1.281048151000000024e+00 7.967660270999999739e+00 0.000000000000000000e+00 -1.589117113999999997e+00 2.936331451000000037e+00 7.570823501999999650e+00
6.040888323999999976e+00 0.000000000000000000e+00 0.000000000000000000e+00 -1.500841475999999952e+00 7.960961787999999650e+00 0.000000000000000000e+00 -1.513665926000000050e+00 2.619428194000000154e+00 7.504641019000000135e+00
6.017312195999999780e+00 0.000000000000000000e+00 0.000000000000000000e+00 4.471352869000000396e+00 7.829426187000000148e+00 0.000000000000000000e+00 4.684040086999999630e+00 2.652469648999999929e+00 7.357085933999999661e+00
6.156973848999999888e+00 0.000000000000000000e+00 0.000000000000000000e+00 -1.503755348000000103e+00 7.921891325999999900e+00 0.000000000000000000e+00 -1.400171330000000047e+00 2.800197344999999949e+00 7.702106406999999599e+00
6.176512322999999860e+00 0.000000000000000000e+00 0.000000000000000000e+00 4.680435526000000124e+00 7.917928610999999783e+00 0.000000000000000000e+00 4.457378509999999849e+00 2.818757381999999811e+00 7.424605511000000213e+00
5.948198722999999966e+00 0.000000000000000000e+00 0.000000000000000000e+00 -1.497048594000000010e+00 8.036899677999999270e+00 0.000000000000000000e+00 -1.460488503999999965e+00 2.771942897999999822e+00 7.593357460000000003e+00
