1.515109999999999957e+00 9.799099999999999477e-01 4.500650000000000261e+00 1.460669999999999913e+00 1.207880000000000065e+00 6.914299999999999891e-01 -8.896999999999999353e-02 3.663229999999999986e+00 4.472660000000000302e+00 9.216000000000000580e-02 3.627260000000000151e+00 9.561769999999999214e+00 4.566209999999999880e+00 9.052799999999999736e-01 4.557730000000000281e+00 4.750779999999999781e+00 1.022839999999999971e+00 9.595570000000000377e+00 3.153439999999999799e+00 3.718750000000000000e+00 4.427240000000000286e+00 3.138459999999999805e+00 3.543130000000000113e+00 9.536550000000000082e+00 -4.121999999999999970e-02 1.939389999999999947e+00 1.981289999999999996e+00 -3.252000000000000030e-02 1.692339999999999955e+00 7.050609999999999822e+00 -1.566850000000000076e+00 4.508779999999999788e+00 1.840729999999999977e+00 -1.564329999999999998e+00 4.415099999999999802e+00 6.910000000000000142e+00 3.215040000000000120e+00 1.849529999999999896e+00 1.959330000000000016e+00 3.121840000000000170e+00 1.875909999999999966e+00 6.948140000000000427e+00 1.499679999999999902e+00 4.532659999999999911e+00 1.838680000000000092e+00 1.506590000000000096e+00 4.532449999999999868e+00 7.039649999999999963e+00 1.972920000000000007e+00 3.506799999999999917e-01 8.881050000000000111e+00 1.580680000000000085e+00 9.916099999999999914e-01 2.457800000000000207e+00 1.604850000000000110e+00 8.804499999999999549e-01 7.320400000000000240e+00 -6.346000000000000252e-02 3.685550000000000104e+00 2.502009999999999845e+00 -4.997000000000000053e-02 3.509459999999999802e+00 7.643010000000000304e+00 4.675790000000000113e+00 9.501300000000000301e-01 2.554479999999999862e+00 4.567999999999999616e+00 9.498299999999999521e-01 7.675440000000000040e+00 3.105160000000000142e+00 3.620019999999999794e+00 2.406330000000000080e+00 3.140979999999999883e+00 3.629680000000000017e+00 7.628610000000000113e+00 -1.546599999999999919e-01 1.817979999999999929e+00 5.161159999999999748e+00 -3.837000000000000133e-02 1.966939999999999911e+00 1.113200000000000023e-01 -1.562899999999999956e+00 4.557970000000000077e+00 5.053180000000000227e+00 -1.528010000000000090e+00 4.378969999999999807e+00 1.017651000000000039e+01 3.128140000000000143e+00 1.979249999999999954e+00 5.023010000000000197e+00 3.160870000000000068e+00 1.800810000000000022e+00 1.020851000000000042e+01 1.550610000000000044e+00 4.449679999999999858e+00 5.088079999999999714e+00 1.623739999999999961e+00 4.639149999999999885e+00 1.009507999999999939e+01
1.543390000000000040e+00 9.392599999999999838e-01 4.349630000000000329e+00 1.395869999999999944e+00 1.018350000000000088e+00 2.650399999999999978e-01 2.636000000000000149e-02 3.599000000000000199e+00 4.447239999999999860e+00 2.072700000000000098e-01 3.452300000000000146e+00 9.573629999999999640e+00 4.703199999999999825e+00 8.848700000000000454e-01 4.447160000000000224e+00 4.929890000000000327e+00 8.372000000000000552e-01 9.574310000000000542e+00 3.086710000000000065e+00 3.612410000000000121e+00 4.362490000000000201e+00 3.312110000000000110e+00 3.509529999999999816e+00 9.403180000000000760e+00 -9.998999999999999555e-02 1.870170000000000110e+00 2.091849999999999987e+00 3.228999999999999926e-02 1.806720000000000104e+00 6.982039999999999580e+00 -1.554689999999999905e+00 4.420230000000000103e+00 1.977780000000000094e+00 -1.616600000000000037e+00 4.419940000000000424e+00 6.718740000000000379e+00 3.191500000000000004e+00 1.823669999999999902e+00 1.968750000000000000e+00 3.179359999999999964e+00 1.904460000000000042e+00 6.717159999999999798e+00 1.560769999999999991e+00 4.464690000000000047e+00 1.926209999999999978e+00 1.584789999999999921e+00 4.476659999999999862e+00 6.929219999999999935e+00 2.797499999999999876e+00 2.441000000000000114e-01 8.544320000000000803e+00 1.546529999999999960e+00 9.223200000000000287e-01 2.195260000000000211e+00 1.671999999999999931e+00 8.833800000000000541e-01 7.270929999999999893e+00 2.870000000000000155e-03 3.602559999999999985e+00 2.570450000000000124e+00 1.869999999999999917e-03 3.760009999999999852e+00 7.650509999999999700e+00 4.678849999999999731e+00 8.962799999999999656e-01 2.568499999999999783e+00 4.553069999999999951e+00 8.473399999999999821e-01 7.658909999999999663e+00 3.117599999999999927e+00 3.575750000000000206e+00 2.468840000000000146e+00 3.154030000000000111e+00 3.578889999999999905e+00 7.459489999999999732e+00 -2.730000000000000135e-02 1.826519999999999921e+00 5.069390000000000285e+00 -1.522600000000000064e-01 1.888619999999999965e+00 1.852900000000000102e-01 -1.590430000000000010e+00 4.498599999999999710e+00 4.874909999999999854e+00 -1.316340000000000066e+00 4.568550000000000111e+00 9.975270000000000081e+00 3.113039999999999807e+00 1.823199999999999932e+00 4.870400000000000063e+00 3.201080000000000148e+00 1.585569999999999924e+00 9.972200000000000841e+00 1.565819999999999990e+00 4.477380000000000138e+00 5.073430000000000106e+00 1.579739999999999922e+00 4.451060000000000016e+00 4.179999999999999688e-03
1.607599999999999918e+00 9.374400000000000510e-01 4.390270000000000117e+00 6.147500000000000187e-01 3.098500000000000143e-01 9.716839999999999478e+00 1.298700000000000132e-01 3.693729999999999958e+00 4.326609999999999623e+00 1.021999999999999992e-01 3.625459999999999905e+00 9.271829999999999572e+00 4.800430000000000419e+00 9.103200000000000180e-01 4.290510000000000268e+00 4.805649999999999977e+00 9.699499999999999789e-01 9.255219999999999558e+00 3.257060000000000066e+00 3.699219999999999953e+00 4.291179999999999772e+00 3.328800000000000203e+00 3.631549999999999834e+00 9.243900000000000006e+00 -5.389999999999999826e-03 1.896910000000000096e+00 1.963570000000000038e+00 2.442000000000000073e-02 1.808629999999999960e+00 6.737330000000000041e+00 -1.468190000000000106e+00 4.543260000000000076e+00 1.952800000000000091e+00 -1.480429999999999913e+00 4.530490000000000350e+00 6.728159999999999918e+00 3.173299999999999788e+00 1.841059999999999919e+00 1.893659999999999899e+00 3.300209999999999866e+00 1.857720000000000038e+00 6.571410000000000196e+00 1.675159999999999982e+00 4.575929999999999609e+00 1.822459999999999969e+00 1.699940000000000007e+00 4.541970000000000063e+00 6.844280000000000364e+00 2.059750000000000192e+00 1.185279999999999889e+00 8.505060000000000286e+00 1.576179999999999914e+00 9.430800000000000294e-01 2.466540000000000177e+00 1.683589999999999920e+00 9.394099999999999673e-01 7.021270000000000344e+00 1.064800000000000052e-01 3.688600000000000101e+00 2.413899999999999935e+00 9.593999999999999750e-02 3.631209999999999827e+00 7.348189999999999777e+00 4.796109999999999651e+00 9.361300000000000177e-01 2.405159999999999965e+00 4.763160000000000061e+00 9.482399999999999718e-01 7.374530000000000030e+00 3.250950000000000006e+00 3.710840000000000138e+00 2.410940000000000083e+00 3.300839999999999996e+00 3.591909999999999936e+00 7.354599999999999582e+00 -1.323000000000000044e-02 1.855369999999999964e+00 4.828660000000000174e+00 -1.064400000000000068e-01 1.932409999999999961e+00 2.316000000000000003e-02 -1.486250000000000071e+00 4.520190000000000374e+00 4.842060000000000031e+00 -1.526769999999999960e+00 4.405590000000000117e+00 4.429999999999999910e-02 3.251279999999999948e+00 1.861140000000000017e+00 4.831819999999999560e+00 3.545110000000000205e+00 2.071309999999999985e+00 8.658000000000000418e-02 1.693580000000000085e+00 4.572049999999999947e+00 4.933390000000000164e+00 1.763419999999999987e+00 4.585580000000000211e+00 9.797259999999999636e+00
1.515439999999999898e+00 8.407200000000000228e-01 4.304280000000000328e+00 1.170320000000000027e+00 9.755800000000000027e-01 9.536170000000000258e+00 2.274999999999999939e-02 3.677329999999999988e+00 4.313539999999999708e+00 -2.966999999999999846e-02 3.520739999999999981e+00 9.211190000000000211e+00 4.727929999999999744e+00 9.540600000000000191e-01 4.228279999999999816e+00 4.615669999999999717e+00 9.938099999999999712e-01 9.242900000000000560e+00 3.155370000000000008e+00 3.676109999999999989e+00 4.093130000000000379e+00 3.043569999999999887e+00 3.692989999999999995e+00 9.193400000000000460e+00 1.162999999999999971e-02 1.860360000000000014e+00 2.013659999999999783e+00 -2.045599999999999918e-01 1.715100000000000069e+00 6.689009999999999678e+00 -1.439219999999999944e+00 4.526530000000000165e+00 1.850980000000000070e+00 -1.761039999999999939e+00 4.563570000000000348e+00 6.700789999999999580e+00 3.210570000000000146e+00 1.820740000000000025e+00 1.808340000000000058e+00 2.904450000000000198e+00 1.905550000000000077e+00 6.461800000000000210e+00 1.631969999999999921e+00 4.605540000000000411e+00 1.860060000000000047e+00 1.444069999999999965e+00 4.460390000000000299e+00 6.545239999999999725e+00 2.842109999999999914e+00 1.334599999999999953e-01 8.257669999999999177e+00 1.560389999999999944e+00 9.406400000000000317e-01 2.248099999999999987e+00 1.492129999999999956e+00 8.708500000000000130e-01 7.228850000000000442e+00 5.129000000000000226e-02 3.666599999999999859e+00 2.411970000000000169e+00 -1.014199999999999963e-01 3.754980000000000206e+00 7.258549999999999613e+00 4.637719999999999843e+00 9.254099999999999548e-01 2.362849999999999895e+00 4.525159999999999627e+00 8.542499999999999538e-01 7.304190000000000182e+00 3.278119999999999923e+00 3.753120000000000012e+00 2.325489999999999835e+00 2.895950000000000024e+00 3.586329999999999796e+00 7.167060000000000208e+00 -1.819000000000000131e-02 1.834000000000000075e+00 4.780820000000000292e+00 -2.151299999999999879e-01 1.922830000000000039e+00 1.150899999999999979e-01 -1.598600000000000021e+00 4.524020000000000152e+00 4.800239999999999618e+00 -1.523560000000000025e+00 4.591529999999999667e+00 9.573190000000000310e+00 3.123159999999999936e+00 1.777819999999999956e+00 4.670079999999999565e+00 2.906839999999999868e+00 1.576989999999999892e+00 9.524240000000000705e+00 1.559669999999999890e+00 4.563349999999999795e+00 4.718090000000000117e+00 1.480359999999999898e+00 4.603460000000000107e+00 9.544589999999999463e+00
1.565970000000000084e+00 8.911799999999999722e-01 4.378140000000000143e+00 1.406840000000000090e+00 9.383700000000000374e-01 9.301959999999999340e+00 1.603799999999999948e-01 3.675190000000000179e+00 4.246839999999999726e+00 1.415200000000000069e-01 3.433330000000000215e+00 9.337080000000000268e+00 4.688329999999999664e+00 9.766599999999999726e-01 4.177760000000000140e+00 4.877519999999999634e+00 1.030839999999999979e+00 9.170479999999999521e+00 3.123479999999999812e+00 3.516659999999999897e+00 4.126140000000000363e+00 3.254350000000000076e+00 3.477710000000000079e+00 9.045560000000000045e+00 -5.769999999999999955e-03 1.869529999999999914e+00 1.942360000000000086e+00 -9.168999999999999373e-02 1.812279999999999891e+00 6.719420000000000393e+00 -1.492990000000000039e+00 4.385690000000000310e+00 1.862319999999999975e+00 -1.823730000000000073e+00 4.452009999999999579e+00 6.562380000000000102e+00 3.108330000000000037e+00 1.815479999999999983e+00 1.737900000000000000e+00 3.024789999999999868e+00 2.062870000000000203e+00 6.542469999999999786e+00 1.607879999999999976e+00 4.530660000000000132e+00 1.684679999999999955e+00 1.605739999999999945e+00 4.472979999999999734e+00 6.592819999999999681e+00 3.168930000000000025e+00 9.614000000000000323e-02 8.078820000000000334e+00 1.537870000000000070e+00 9.066499999999999559e-01 2.381050000000000111e+00 1.650150000000000006e+00 8.283800000000000052e-01 7.252309999999999590e+00 1.260300000000000031e-01 3.689270000000000049e+00 2.362839999999999829e+00 -1.284000000000000072e-02 3.683660000000000156e+00 7.309350000000000236e+00 4.747499999999999609e+00 9.680800000000000516e-01 2.300440000000000040e+00 4.508339999999999570e+00 8.877599999999999936e-01 7.286459999999999937e+00 3.208969999999999878e+00 3.631819999999999826e+00 2.261319999999999997e+00 3.116270000000000095e+00 3.661910000000000220e+00 7.218679999999999986e+00 5.250000000000000326e-03 1.841080000000000050e+00 4.932640000000000136e+00 -1.734600000000000031e-01 1.883240000000000025e+00 3.545000000000000234e-02 -1.536100000000000021e+00 4.406620000000000203e+00 4.727689999999999948e+00 -1.245060000000000056e+00 4.538979999999999571e+00 9.533849999999999270e+00 3.135170000000000012e+00 1.787469999999999892e+00 4.804520000000000124e+00 3.145290000000000141e+00 1.671100000000000030e+00 9.613540000000000418e+00 1.715090000000000003e+00 4.556639999999999802e+00 4.828899999999999970e+00 1.700399999999999912e+00 4.561329999999999885e+00 9.588559999999999306e+00
1.519020000000000037e+00 1.095269999999999966e+00 4.279359999999999609e+00 1.202879999999999949e+00 2.757709999999999884e+00 8.491770000000000707e+00 -7.047000000000000486e-02 3.788019999999999943e+00 4.518729999999999691e+00 -3.006599999999999828e-01 4.288129999999999775e+00 9.606139999999999901e+00 4.656369999999999898e+00 1.096610000000000085e+00 4.399269999999999570e+00 4.502930000000000099e+00 1.571870000000000100e+00 9.509990000000000165e+00 2.949079999999999924e+00 3.867440000000000211e+00 4.421439999999999593e+00 3.002990000000000048e+00 4.379710000000000214e+00 9.688940000000000552e+00 -1.551200000000000079e-01 2.063229999999999897e+00 1.934879999999999933e+00 -2.406999999999999973e-01 2.058450000000000113e+00 6.784180000000000099e+00 -1.613920000000000021e+00 4.320990000000000109e+00 2.141150000000000109e+00 -1.734359999999999902e+00 4.738030000000000186e+00 6.965930000000000177e+00 3.092940000000000023e+00 1.905569999999999986e+00 2.055680000000000174e+00 3.085480000000000000e+00 2.143609999999999793e+00 6.786299999999999777e+00 1.494220000000000104e+00 4.616570000000000285e+00 1.867760000000000087e+00 1.383890000000000065e+00 4.792819999999999858e+00 7.049619999999999997e+00 1.414009999999999989e+00 7.830599999999999783e-01 3.768199999999999883e-01 1.541379999999999972e+00 9.376900000000000235e-01 2.131850000000000023e+00 1.404479999999999951e+00 1.339820000000000011e+00 7.299009999999999998e+00 2.893000000000000085e-02 3.621680000000000010e+00 2.699170000000000069e+00 -1.021500000000000047e-01 3.900739999999999874e+00 7.676300000000000345e+00 4.635139999999999816e+00 1.005540000000000100e+00 2.497819999999999929e+00 4.595690000000000275e+00 1.262459999999999916e+00 7.544389999999999930e+00 2.976280000000000037e+00 3.723910000000000053e+00 2.619159999999999933e+00 2.941380000000000106e+00 3.813480000000000203e+00 7.621489999999999654e+00 -2.139999999999999975e-03 1.971270000000000078e+00 5.016689999999999650e+00 9.113000000000000267e-02 1.895189999999999930e+00 2.320000000000000014e-03 -1.658840000000000092e+00 4.720080000000000275e+00 4.938780000000000392e+00 -1.545639999999999903e+00 4.409970000000000390e+00 3.381700000000000261e-01 3.059959999999999791e+00 1.979470000000000063e+00 4.809800000000000075e+00 2.717429999999999790e+00 2.437009999999999899e+00 1.004438000000000031e+01 1.576349999999999918e+00 4.692709999999999937e+00 5.238500000000000156e+00 1.422840000000000105e+00 5.091190000000000104e+00 1.011077000000000048e+01
1.534729999999999928e+00 9.902400000000000091e-01 4.152129999999999654e+00 1.251640000000000086e+00 8.884600000000000275e-01 9.711029999999999163e+00 -1.432700000000000085e-01 3.651460000000000150e+00 4.227719999999999700e+00 -5.408000000000000307e-02 3.454149999999999832e+00 9.308529999999999305e+00 4.588940000000000019e+00 8.647000000000000242e-01 4.357470000000000176e+00 4.844109999999999694e+00 6.715200000000000058e-01 9.082420000000000826e+00 3.094419999999999948e+00 3.651330000000000187e+00 4.205390000000000406e+00 3.088029999999999831e+00 3.411220000000000141e+00 9.020490000000000563e+00 -8.025000000000000189e-02 1.778440000000000021e+00 2.193229999999999791e+00 -2.119300000000000073e-01 1.794170000000000043e+00 6.651150000000000340e+00 -1.626500000000000057e+00 4.554129999999999789e+00 1.947500000000000009e+00 -1.694509999999999961e+00 4.529600000000000293e+00 6.557280000000000442e+00 3.089129999999999932e+00 1.802699999999999969e+00 1.788219999999999921e+00 2.955499999999999794e+00 1.799849999999999950e+00 6.637010000000000076e+00 1.524119999999999919e+00 4.396349999999999980e+00 1.858039999999999914e+00 1.544410000000000061e+00 4.433180000000000121e+00 6.645710000000000228e+00 2.806160000000000210e+00 1.133900000000000047e-01 8.301019999999999399e+00 1.575909999999999922e+00 9.089099999999999957e-01 2.193820000000000103e+00 1.490050000000000097e+00 8.532300000000000439e-01 7.298189999999999955e+00 -5.553999999999999909e-02 3.587709999999999955e+00 2.406839999999999868e+00 -6.411000000000000032e-02 3.752759999999999874e+00 7.326740000000000030e+00 4.663969999999999949e+00 7.743200000000000083e-01 2.544290000000000163e+00 4.576010000000000133e+00 7.742400000000000393e-01 7.299520000000000231e+00 3.147810000000000219e+00 3.568519999999999914e+00 2.383030000000000204e+00 3.102390000000000203e+00 3.558609999999999829e+00 7.176789999999999559e+00 -1.495900000000000007e-01 1.803660000000000041e+00 4.772090000000000387e+00 -8.717999999999999361e-02 1.877150000000000096e+00 2.222300000000000109e-01 -1.677289999999999948e+00 4.573019999999999641e+00 4.808119999999999727e+00 -1.469530000000000003e+00 4.451290000000000191e+00 9.574089999999999989e+00 3.061780000000000168e+00 1.860249999999999959e+00 4.890410000000000146e+00 3.215240000000000098e+00 1.556389999999999940e+00 9.612239999999999895e+00 1.456949999999999967e+00 4.455739999999999590e+00 4.812929999999999708e+00 1.538910000000000000e+00 4.328170000000000073e+00 9.749409999999999243e+00
1.444450000000000012e+00 1.072000000000000064e+00 4.522820000000000285e+00 1.520070000000000032e+00 1.276920000000000055e+00 9.624280000000000612e+00 -2.121800000000000075e-01 3.797899999999999832e+00 4.391720000000000290e+00 -1.199999999999999956e-01 3.787380000000000191e+00 9.692090000000000316e+00 4.446710000000000385e+00 1.062969999999999970e+00 4.509299999999999642e+00 4.613430000000000142e+00 1.194730000000000070e+00 9.612220000000000653e+00 2.750080000000000080e+00 3.695650000000000102e+00 4.355319999999999858e+00 3.009840000000000071e+00 3.932380000000000209e+00 9.512130000000000862e+00 -1.396000000000000019e-01 1.835460000000000091e+00 1.901280000000000081e+00 2.401699999999999946e-01 2.023249999999999993e+00 6.912259999999999849e+00 -1.732059999999999933e+00 4.563550000000000217e+00 1.940099999999999936e+00 -1.642759999999999998e+00 4.699749999999999872e+00 6.707779999999999632e+00 3.019870000000000054e+00 1.927650000000000086e+00 1.826869999999999994e+00 3.247129999999999850e+00 2.185869999999999980e+00 6.916719999999999757e+00 1.240839999999999943e+00 4.637679999999999580e+00 1.878379999999999939e+00 1.483570000000000055e+00 4.691340000000000288e+00 6.929879999999999818e+00 -3.328699999999999992e-01 5.498230000000000395e+00 8.414450000000000429e+00 1.381410000000000027e+00 1.072599999999999998e+00 2.497469999999999857e+00 1.724380000000000024e+00 1.097590000000000066e+00 7.655109999999999637e+00 -2.525700000000000167e-01 3.650589999999999780e+00 2.444030000000000147e+00 -1.783299999999999885e-01 3.804670000000000218e+00 7.641720000000000290e+00 4.448579999999999757e+00 9.907700000000000395e-01 2.631369999999999987e+00 4.582300000000000040e+00 1.023239999999999927e+00 7.579220000000000290e+00 2.801800000000000068e+00 3.760440000000000005e+00 2.486019999999999897e+00 3.015800000000000036e+00 3.832370000000000054e+00 7.612250000000000405e+00 -8.558000000000000329e-02 2.015769999999999840e+00 5.082469999999999821e+00 -1.151400000000000062e-01 1.835429999999999895e+00 5.523999999999999744e-02 -1.798219999999999930e+00 4.670270000000000366e+00 4.947409999999999641e+00 -1.613390000000000102e+00 4.624360000000000248e+00 9.419999999999999554e-03 2.936249999999999805e+00 1.974969999999999892e+00 5.144070000000000142e+00 3.069209999999999994e+00 2.173130000000000006e+00 1.009683000000000064e+01 1.273819999999999952e+00 4.622609999999999886e+00 5.010239999999999583e+00 1.416709999999999914e+00 4.763300000000000090e+00 1.002321000000000062e+01
1.602929999999999966e+00 8.761600000000000499e-01 4.348620000000000374e+00 1.499030000000000085e+00 2.218570000000000153e+00 8.604710000000000747e+00 1.723999999999999838e-02 3.574370000000000047e+00 4.497659999999999769e+00 -7.122000000000000552e-02 3.544529999999999959e+00 9.668049999999999145e+00 4.659370000000000012e+00 8.658900000000000485e-01 4.401040000000000063e+00 4.716719999999999580e+00 8.056799999999999518e-01 9.397280000000000300e+00 3.143679999999999808e+00 3.662679999999999936e+00 4.454939999999999678e+00 3.117640000000000189e+00 3.512290000000000134e+00 9.528380000000000294e+00 -6.905000000000000027e-02 1.763940000000000063e+00 2.123450000000000060e+00 -1.311700000000000088e-01 1.675769999999999982e+00 6.781600000000000072e+00 -1.536729999999999929e+00 4.319049999999999834e+00 1.950029999999999930e+00 -1.575630000000000086e+00 4.487169999999999881e+00 7.125280000000000058e+00 3.026079999999999881e+00 1.894970000000000043e+00 1.835779999999999967e+00 3.233480000000000132e+00 1.716609999999999969e+00 6.754139999999999588e+00 1.605290000000000106e+00 4.565760000000000041e+00 1.977600000000000025e+00 1.526980000000000004e+00 4.320140000000000313e+00 6.880630000000000024e+00 1.403469999999999995e+00 7.873299999999999743e-01 1.199000000000000066e-01 1.586980000000000057e+00 7.921099999999999808e-01 2.317340000000000177e+00 1.552610000000000046e+00 1.002269999999999994e+00 7.231869999999999798e+00 7.199999999999999456e-02 3.527810000000000112e+00 2.562110000000000110e+00 1.391300000000000037e-01 3.437629999999999963e+00 7.748409999999999798e+00 4.663529999999999731e+00 1.002299999999999969e+00 2.588439999999999852e+00 4.658809999999999896e+00 7.567099999999999937e-01 7.432959999999999567e+00 3.138869999999999827e+00 3.544680000000000053e+00 2.564340000000000064e+00 3.127810000000000201e+00 3.412580000000000169e+00 7.686770000000000103e+00 -2.946999999999999967e-02 1.705209999999999892e+00 4.915370000000000239e+00 1.270100000000000118e-01 1.773090000000000055e+00 9.995219999999999771e+00 -1.471840000000000037e+00 4.373129999999999740e+00 5.157000000000000028e+00 -1.701869999999999994e+00 4.343890000000000029e+00 1.166399999999999937e-01 3.112839999999999829e+00 1.757700000000000040e+00 4.858520000000000394e+00 3.098059999999999814e+00 1.682839999999999892e+00 1.009497000000000000e+01 1.640060000000000073e+00 4.447259999999999991e+00 5.029899999999999594e+00 1.562219999999999942e+00 4.450759999999999827e+00 5.213000000000000272e-02
1.555919999999999970e+00 8.746300000000000185e-01 4.333330000000000126e+00 1.539139999999999953e+00 6.205699999999999550e-01 3.180700000000000194e-01 7.363000000000000100e-02 3.627740000000000187e+00 4.487700000000000244e+00 1.342000000000000137e-01 3.403439999999999799e+00 9.511509999999999465e+00 4.619349999999999845e+00 8.118100000000000316e-01 4.394660000000000011e+00 4.678340000000000387e+00 7.743200000000000083e-01 9.472860000000000724e+00 2.959350000000000147e+00 3.517180000000000195e+00 4.415309999999999846e+00 3.309699999999999864e+00 3.309120000000000061e+00 9.473499999999999588e+00 -1.077400000000000024e-01 1.808820000000000094e+00 2.105529999999999902e+00 -2.929000000000000006e-02 1.657799999999999940e+00 6.794590000000000352e+00 -1.620049999999999990e+00 4.495429999999999815e+00 2.240310000000000024e+00 -1.459799999999999986e+00 4.401810000000000223e+00 6.810769999999999769e+00 3.010990000000000055e+00 1.811010000000000009e+00 1.934379999999999988e+00 3.241909999999999847e+00 1.682670000000000110e+00 6.776860000000000106e+00 1.494129999999999958e+00 4.487199999999999633e+00 1.862319999999999975e+00 1.659780000000000033e+00 4.353790000000000049e+00 7.112239999999999895e+00 1.673939999999999984e+00 1.699410000000000087e+00 8.782619999999999649e+00 1.470159999999999911e+00 8.512600000000000167e-01 2.281969999999999832e+00 1.597080000000000055e+00 8.051800000000000068e-01 7.036139999999999617e+00 1.053299999999999931e-01 3.562850000000000072e+00 2.605350000000000055e+00 3.058999999999999914e-02 3.434680000000000177e+00 7.536850000000000271e+00 4.505239999999999689e+00 8.123299999999999965e-01 2.517490000000000006e+00 4.637179999999999858e+00 7.386399999999999633e-01 7.541730000000000267e+00 2.939229999999999787e+00 3.506009999999999849e+00 2.617109999999999825e+00 3.179530000000000189e+00 3.355150000000000077e+00 7.572029999999999816e+00 -5.331999999999999934e-02 1.827420000000000044e+00 4.921800000000000175e+00 1.966700000000000115e-01 1.628830000000000000e+00 9.935999999999999943e+00 -1.530119999999999925e+00 4.477269999999999861e+00 4.833459999999999646e+00 -1.596340000000000092e+00 4.313979999999999926e+00 3.470599999999999796e-01 3.091769999999999907e+00 1.733710000000000084e+00 4.921929999999999694e+00 2.918930000000000025e+00 1.477060000000000040e+00 9.975699999999999790e+00 1.558179999999999898e+00 4.503750000000000142e+00 5.098499999999999588e+00 1.704280000000000017e+00 4.345539999999999736e+00 1.009856000000000087e+01
1.543840000000000101e+00 1.170909999999999895e+00 4.611620000000000275e+00 1.416970000000000063e+00 2.209810000000000052e+00 8.674369999999999692e+00 -3.524999999999999661e-02 3.845499999999999918e+00 4.454880000000000173e+00 -1.907800000000000051e-01 3.959189999999999987e+00 9.656470000000000553e+00 4.602350000000000385e+00 1.117490000000000094e+00 4.386330000000000062e+00 4.584200000000000053e+00 1.375830000000000108e+00 9.561090000000000089e+00 3.090160000000000018e+00 3.798610000000000042e+00 4.510839999999999961e+00 3.105220000000000091e+00 4.180310000000000414e+00 9.640119999999999578e+00 -1.473500000000000087e-01 2.003420000000000201e+00 1.961249999999999938e+00 -1.422899999999999998e-01 2.034149999999999903e+00 6.809700000000000308e+00 -1.627119999999999900e+00 4.407359999999999722e+00 2.245159999999999823e+00 -1.625050000000000106e+00 4.590130000000000265e+00 7.036150000000000126e+00 3.184740000000000126e+00 1.869539999999999980e+00 2.077409999999999979e+00 3.069929999999999826e+00 2.014730000000000132e+00 6.940830000000000055e+00 1.520329999999999959e+00 4.572890000000000121e+00 1.891909999999999981e+00 1.398409999999999931e+00 4.785709999999999908e+00 7.024779999999999802e+00 1.504850000000000021e+00 7.125500000000000167e-01 3.220500000000000029e-01 1.518289999999999917e+00 1.117660000000000098e+00 2.182999999999999829e+00 1.423200000000000021e+00 1.075220000000000065e+00 7.293800000000000061e+00 -4.297000000000000125e-02 3.690150000000000041e+00 2.568929999999999936e+00 1.198700000000000043e-01 3.675440000000000040e+00 7.709170000000000300e+00 4.605550000000000033e+00 9.320100000000000051e-01 2.476379999999999804e+00 4.616209999999999702e+00 1.199650000000000105e+00 7.720100000000000406e+00 3.034240000000000048e+00 3.610749999999999904e+00 2.721429999999999794e+00 2.913710000000000022e+00 3.737200000000000077e+00 7.811749999999999972e+00 -8.985999999999999543e-02 1.977980000000000071e+00 4.971820000000000128e+00 5.807999999999999968e-02 2.186160000000000103e+00 1.019139999999999979e+01 -1.552880000000000038e+00 4.758700000000000152e+00 5.018950000000000244e+00 -1.525339999999999918e+00 4.359960000000000058e+00 3.728299999999999947e-01 3.184540000000000148e+00 1.986469999999999958e+00 5.032899999999999707e+00 2.849299999999999944e+00 2.253969999999999807e+00 9.900539999999999452e+00 1.551930000000000032e+00 4.755869999999999820e+00 5.224280000000000257e+00 1.530319999999999903e+00 4.949609999999999843e+00 1.018580000000000041e+01
1.473000000000000087e+00 9.439300000000000468e-01 4.589550000000000018e+00 2.757509999999999906e+00 -3.980000000000000031e-03 8.384570000000000078e+00 -1.207199999999999940e-01 3.691009999999999902e+00 4.517660000000000231e+00 -1.509600000000000108e-01 3.525399999999999867e+00 9.765340000000000131e+00 4.561139999999999972e+00 9.907200000000000450e-01 4.403749999999999609e+00 4.685109999999999886e+00 8.151000000000000467e-01 9.740339999999999776e+00 3.009049999999999780e+00 3.683980000000000032e+00 4.418739999999999668e+00 2.877339999999999787e+00 3.533360000000000056e+00 9.560159999999999769e+00 1.609999999999999973e-02 1.870970000000000022e+00 2.197639999999999816e+00 -1.294599999999999917e-01 1.906139999999999946e+00 7.093479999999999563e+00 -1.741829999999999989e+00 4.427830000000000155e+00 1.885829999999999895e+00 -1.846659999999999968e+00 4.510460000000000136e+00 6.733450000000000379e+00 3.059130000000000127e+00 1.791749999999999954e+00 1.893440000000000012e+00 3.073989999999999778e+00 1.948809999999999931e+00 6.848959999999999937e+00 1.387429999999999941e+00 4.512570000000000192e+00 2.071680000000000188e+00 1.408959999999999990e+00 4.472529999999999895e+00 6.993159999999999599e+00 1.427270000000000039e+00 7.807800000000000296e-01 9.858520000000000394e+00 1.448099999999999943e+00 7.989800000000000235e-01 2.099709999999999965e+00 1.559819999999999984e+00 8.917000000000000481e-01 7.051440000000000374e+00 -2.639000000000000234e-01 3.616890000000000160e+00 2.689340000000000064e+00 -2.537699999999999956e-01 3.731819999999999915e+00 7.620949999999999669e+00 4.555570000000000341e+00 9.228899999999999881e-01 2.448189999999999866e+00 4.393930000000000113e+00 8.659799999999999720e-01 7.721770000000000245e+00 2.867010000000000058e+00 3.555229999999999890e+00 2.548869999999999969e+00 2.984249999999999847e+00 3.673970000000000180e+00 7.589489999999999625e+00 -1.134099999999999969e-01 1.818480000000000096e+00 5.154329999999999856e+00 -3.760999999999999760e-02 1.967119999999999980e+00 2.748200000000000087e-01 -1.675249999999999906e+00 4.616139999999999688e+00 4.991349999999999731e+00 -1.627950000000000008e+00 4.368140000000000356e+00 7.530000000000000235e-03 2.998479999999999812e+00 1.877459999999999907e+00 4.962570000000000370e+00 2.995150000000000201e+00 1.587909999999999933e+00 1.003979999999999961e+01 1.442730000000000068e+00 4.605590000000000295e+00 5.186519999999999797e+00 1.497959999999999958e+00 4.438259999999999650e+00 4.390999999999999764e-02