1.647880000000000011e+00 8.339999999999999636e-01 4.456209999999999560e+00 1.671599999999999975e+00 9.954399999999999915e-01 7.209999999999999742e-02 1.359100000000000030e-01 3.626129999999999853e+00 4.368089999999999584e+00 3.037900000000000045e-01 3.687780000000000058e+00 9.446279999999999788e+00 4.838090000000000224e+00 9.907500000000000195e-01 4.421529999999999738e+00 4.963849999999999874e+00 9.048899999999999721e-01 9.440970000000000084e+00 3.049150000000000027e+00 3.591239999999999988e+00 4.548639999999999795e+00 3.380170000000000119e+00 3.570860000000000145e+00 9.541050000000000253e+00 -8.934999999999999887e-02 1.737880000000000091e+00 1.861280000000000046e+00 9.141000000000000514e-02 1.955580000000000096e+00 6.875219999999999665e+00 -1.494899999999999896e+00 4.328159999999999563e+00 1.875089999999999923e+00 -1.483729999999999993e+00 4.481840000000000046e+00 6.851060000000000372e+00 3.033580000000000165e+00 1.805430000000000090e+00 2.067909999999999915e+00 3.333530000000000104e+00 1.853150000000000075e+00 6.926090000000000302e+00 1.632560000000000011e+00 4.517960000000000420e+00 1.870230000000000059e+00 1.725689999999999946e+00 4.431370000000000253e+00 6.960160000000000124e+00 1.379450000000000065e+00 1.028280000000000083e+00 8.903190000000000381e+00 1.527460000000000040e+00 8.471600000000000241e-01 2.335749999999999993e+00 1.664860000000000007e+00 1.024310000000000054e+00 7.043339999999999712e+00 2.452900000000000080e-01 3.482880000000000198e+00 2.527190000000000047e+00 -1.187000000000000034e-02 3.767409999999999926e+00 7.617729999999999890e+00 4.683119999999999727e+00 9.642899999999999805e-01 2.501119999999999788e+00 4.821589999999999598e+00 9.422000000000000375e-01 7.577600000000000335e+00 3.208590000000000053e+00 3.590240000000000098e+00 2.644099999999999895e+00 3.273019999999999818e+00 3.572350000000000136e+00 7.610490000000000421e+00 8.870999999999999719e-02 1.851650000000000018e+00 4.878809999999999647e+00 2.675999999999999907e-02 1.916730000000000045e+00 4.709999999999999777e-03 -1.552019999999999955e+00 4.279720000000000191e+00 4.949430000000000440e+00 -1.510250000000000092e+00 4.303329999999999878e+00 6.230000000000000294e-03 3.154009999999999980e+00 1.776489999999999903e+00 4.988800000000000345e+00 3.341839999999999922e+00 1.759220000000000006e+00 3.982000000000000123e-02 1.575120000000000076e+00 4.531150000000000233e+00 5.165869999999999962e+00 1.883659999999999890e+00 4.525140000000000384e+00 1.002319999999999922e+01
1.466159999999999908e+00 7.626500000000000501e-01 4.335119999999999862e+00 1.449200000000000044e+00 7.093800000000000106e-01 9.963520000000000820e+00 -5.784000000000000252e-02 3.518069999999999808e+00 4.421310000000000073e+00 -1.178400000000000003e-01 3.604039999999999910e+00 9.491590000000000416e+00 4.711439999999999628e+00 7.657000000000000473e-01 4.348320000000000185e+00 4.672500000000000320e+00 8.020199999999999552e-01 9.294940000000000424e+00 2.915200000000000014e+00 3.496859999999999857e+00 4.387209999999999610e+00 3.104909999999999837e+00 3.429440000000000044e+00 9.354829999999999757e+00 -1.933499999999999941e-01 1.892349999999999977e+00 2.033560000000000034e+00 -3.203000000000000291e-02 1.643469999999999986e+00 6.718320000000000292e+00 -1.849860000000000060e+00 4.496150000000000091e+00 1.913359999999999950e+00 -1.724469999999999947e+00 4.309549999999999770e+00 6.837069999999999759e+00 3.019429999999999836e+00 1.738099999999999978e+00 1.945510000000000073e+00 3.205459999999999976e+00 1.569620000000000015e+00 6.821880000000000166e+00 1.369280000000000053e+00 4.500009999999999621e+00 1.815069999999999961e+00 1.439820000000000100e+00 4.257699999999999818e+00 6.851320000000000299e+00 1.438330000000000108e+00 1.243610000000000104e+00 8.833320000000000505e+00 1.324729999999999963e+00 9.837700000000000333e-01 2.423639999999999795e+00 1.523060000000000080e+00 8.109699999999999687e-01 7.106069999999999887e+00 -1.555199999999999916e-01 3.708520000000000039e+00 2.526060000000000194e+00 -7.815999999999999337e-02 3.447319999999999940e+00 7.424649999999999750e+00 4.582980000000000054e+00 8.661999999999999700e-01 2.471649999999999903e+00 4.789579999999999949e+00 7.042000000000000481e-01 7.382399999999999629e+00 2.934870000000000090e+00 3.512500000000000178e+00 2.442009999999999792e+00 3.077700000000000102e+00 3.409289999999999932e+00 7.401299999999999990e+00 -6.390999999999999459e-02 1.688620000000000010e+00 4.970119999999999649e+00 -1.844000000000000083e-01 1.787539999999999907e+00 9.970150000000000290e+00 -1.674930000000000030e+00 4.368610000000000326e+00 4.825520000000000032e+00 -1.654819999999999958e+00 4.479029999999999845e+00 8.461000000000000465e-02 3.091930000000000067e+00 1.606470000000000065e+00 4.849479999999999791e+00 3.100709999999999855e+00 1.795840000000000103e+00 4.709999999999999777e-03 1.492620000000000058e+00 4.408290000000000042e+00 4.992980000000000196e+00 1.391939999999999955e+00 4.448990000000000222e+00 9.922309999999999519e+00
1.593350000000000044e+00 1.017069999999999919e+00 4.461030000000000051e+00 1.666860000000000008e+00 1.096959999999999935e+00 1.007793000000000028e+01 4.750999999999999668e-02 3.788769999999999971e+00 4.345650000000000013e+00 -1.136999999999999990e-02 3.862190000000000012e+00 9.567769999999999442e+00 4.555019999999999847e+00 1.046529999999999960e+00 4.455119999999999969e+00 4.458350000000000257e+00 1.127769999999999939e+00 9.502470000000000638e+00 2.860100000000000087e+00 3.720470000000000166e+00 4.348010000000000375e+00 3.090819999999999901e+00 4.012190000000000367e+00 9.604609999999999204e+00 -1.184400000000000036e-01 1.922569999999999890e+00 1.941440000000000055e+00 -1.812400000000000122e-01 2.049420000000000019e+00 6.753260000000000041e+00 -1.729659999999999975e+00 4.563369999999999926e+00 2.036399999999999988e+00 -1.631310000000000038e+00 4.654939999999999856e+00 6.920289999999999608e+00 2.985100000000000087e+00 1.902090000000000058e+00 1.841709999999999958e+00 3.109510000000000218e+00 2.003960000000000186e+00 7.039080000000000226e+00 1.306720000000000104e+00 4.650240000000000151e+00 1.764440000000000008e+00 1.336610000000000076e+00 4.637760000000000105e+00 7.034430000000000405e+00 1.334100000000000064e+00 1.659040000000000070e+00 8.759539999999999438e+00 1.467270000000000074e+00 1.091960000000000042e+00 2.496430000000000149e+00 1.499980000000000091e+00 1.158239999999999936e+00 7.141689999999999650e+00 -7.202999999999999681e-02 3.727850000000000108e+00 2.502130000000000187e+00 -1.990999999999999992e-01 3.792190000000000172e+00 7.826369999999999827e+00 4.503300000000000303e+00 9.273500000000000076e-01 2.458390000000000075e+00 4.642979999999999663e+00 9.383599999999999719e-01 7.623079999999999856e+00 2.749010000000000176e+00 3.723160000000000025e+00 2.529770000000000074e+00 2.964339999999999975e+00 3.639559999999999906e+00 7.710139999999999993e+00 -1.757999999999999841e-02 2.041560000000000041e+00 4.954399999999999693e+00 4.445000000000000340e-02 1.822000000000000064e+00 8.687999999999999889e-02 -1.517830000000000013e+00 4.516820000000000057e+00 4.929030000000000022e+00 -1.626910000000000078e+00 4.379159999999999719e+00 2.318600000000000105e-01 3.085820000000000007e+00 1.975079999999999947e+00 5.007360000000000255e+00 3.199879999999999836e+00 2.039960000000000218e+00 1.017328000000000010e+01 1.418239999999999945e+00 4.644230000000000302e+00 5.206299999999999706e+00 1.488169999999999993e+00 4.808709999999999596e+00 1.004046999999999912e+01
1.532219999999999915e+00 9.482699999999999463e-01 4.376999999999999780e+00 1.413559999999999928e+00 1.209019999999999984e+00 9.973629999999999995e+00 -9.907000000000000528e-02 3.760839999999999961e+00 4.513200000000000323e+00 -8.884999999999999842e-02 3.871020000000000127e+00 9.453870000000000218e+00 4.711000000000000298e+00 8.869500000000000162e-01 4.453100000000000058e+00 4.879330000000000389e+00 9.813800000000000301e-01 9.423629999999999285e+00 2.964259999999999895e+00 3.473329999999999806e+00 4.320199999999999818e+00 3.016360000000000152e+00 3.461500000000000021e+00 9.319160000000000110e+00 -1.557000000000000051e-01 2.116649999999999920e+00 2.230820000000000025e+00 -1.560799999999999965e-01 1.997649999999999926e+00 6.764999999999999680e+00 -1.768659999999999899e+00 4.572409999999999641e+00 1.863289999999999891e+00 -1.637809999999999988e+00 4.370680000000000121e+00 6.811189999999999856e+00 3.005349999999999966e+00 1.798899999999999944e+00 1.986760000000000081e+00 3.101910000000000167e+00 1.828510000000000080e+00 6.927290000000000170e+00 1.501179999999999959e+00 4.582950000000000301e+00 1.715039999999999898e+00 1.576249999999999929e+00 4.508189999999999920e+00 6.824770000000000003e+00 1.572619999999999907e+00 4.718600000000000017e-01 8.721830000000000638e+00 1.480769999999999920e+00 9.934100000000000152e-01 2.512550000000000061e+00 1.464749999999999996e+00 8.573300000000000365e-01 7.057929999999999815e+00 -1.519899999999999862e-01 3.846220000000000194e+00 2.444960000000000022e+00 -3.139999999999999736e-02 3.713550000000000129e+00 7.525199999999999889e+00 4.562540000000000262e+00 1.010550000000000059e+00 2.459849999999999870e+00 4.511779999999999902e+00 9.501100000000000101e-01 7.513419999999999987e+00 2.905269999999999797e+00 3.651920000000000055e+00 2.456910000000000149e+00 2.940960000000000019e+00 3.530909999999999993e+00 7.464480000000000004e+00 5.630000000000000282e-02 1.843180000000000041e+00 4.855629999999999669e+00 1.038499999999999979e-01 2.133340000000000014e+00 3.286000000000000032e-01 -1.825029999999999930e+00 4.524449999999999861e+00 4.931670000000000442e+00 -1.706709999999999949e+00 4.537460000000000271e+00 9.882970000000000255e+00 3.028970000000000162e+00 1.884929999999999994e+00 4.985260000000000247e+00 2.991260000000000030e+00 1.788140000000000063e+00 1.003989999999999938e+01 1.544799999999999951e+00 4.559459999999999624e+00 5.047640000000000349e+00 1.563949999999999951e+00 4.536500000000000199e+00 1.004433000000000042e+01
1.703600000000000003e+00 1.039730000000000043e+00 4.444399999999999906e+00 1.783860000000000001e+00 7.857899999999999885e-01 1.546800000000000119e-01 2.371499999999999997e-01 3.635780000000000012e+00 4.333919999999999995e+00 1.675800000000000067e-01 3.465730000000000199e+00 9.425280000000000769e+00 4.912040000000000184e+00 9.178699999999999637e-01 4.316349999999999909e+00 4.720839999999999925e+00 7.709000000000000297e-01 9.430369999999999919e+00 3.352850000000000108e+00 3.771020000000000039e+00 4.435579999999999856e+00 3.340250000000000163e+00 3.635930000000000106e+00 9.415039999999999409e+00 6.369999999999999794e-03 1.796010000000000106e+00 1.912360000000000060e+00 -8.916999999999999926e-02 1.866999999999999993e+00 6.869989999999999597e+00 -1.447270000000000056e+00 4.434450000000000003e+00 1.962590000000000057e+00 -1.440280000000000005e+00 4.534749999999999837e+00 6.846630000000000216e+00 3.285229999999999873e+00 1.902709999999999901e+00 1.953449999999999909e+00 3.137529999999999930e+00 1.896789999999999976e+00 6.821939999999999671e+00 1.580819999999999892e+00 4.605139999999999567e+00 1.954499999999999904e+00 1.559290000000000065e+00 4.589220000000000077e+00 6.968729999999999869e+00 1.564710000000000045e+00 9.533300000000000107e-01 8.977740000000000720e+00 1.680449999999999999e+00 7.840500000000000247e-01 2.395189999999999930e+00 1.634470000000000089e+00 8.729400000000000492e-01 7.206349999999999589e+00 1.922000000000000097e-01 3.573999999999999844e+00 2.553869999999999862e+00 2.382000000000000089e-02 3.613939999999999930e+00 7.607809999999999739e+00 4.762929999999999886e+00 9.153200000000000225e-01 2.472539999999999960e+00 4.744299999999999962e+00 9.855800000000000116e-01 7.477579999999999671e+00 3.244250000000000078e+00 3.683279999999999887e+00 2.496509999999999785e+00 3.267659999999999787e+00 3.687829999999999941e+00 7.546230000000000437e+00 1.527600000000000069e-01 1.843599999999999905e+00 4.916059999999999874e+00 -6.146999999999999686e-02 1.811530000000000085e+00 4.893999999999999739e-02 -1.485749999999999904e+00 4.490910000000000402e+00 4.931930000000000369e+00 -1.679049999999999931e+00 4.349899999999999878e+00 7.299999999999999545e-02 3.233319999999999972e+00 1.888449999999999962e+00 4.959819999999999673e+00 3.130419999999999980e+00 1.979240000000000110e+00 1.370999999999999996e-01 1.738310000000000022e+00 4.608019999999999783e+00 5.105940000000000367e+00 1.717119999999999980e+00 4.485459999999999781e+00 1.006385000000000041e+01
1.602870000000000017e+00 9.811600000000000321e-01 4.396810000000000329e+00 1.746280000000000054e+00 8.668200000000000349e-01 9.855719999999999814e+00 1.566500000000000115e-01 3.603009999999999824e+00 4.407289999999999708e+00 2.163599999999999968e-01 3.681999999999999940e+00 9.355180000000000717e+00 4.745099999999999874e+00 8.820999999999999952e-01 4.203319999999999723e+00 4.760189999999999699e+00 1.113839999999999941e+00 9.542690000000000339e+00 3.273759999999999781e+00 3.641669999999999963e+00 4.376059999999999839e+00 3.254500000000000171e+00 3.848510000000000097e+00 9.452439999999999287e+00 1.975999999999999979e-02 1.787090000000000067e+00 1.842090000000000005e+00 9.010000000000000647e-03 1.905180000000000096e+00 6.859040000000000248e+00 -1.582209999999999894e+00 4.502799999999999692e+00 2.031299999999999883e+00 -1.535250000000000004e+00 4.550250000000000128e+00 6.816130000000000244e+00 3.148330000000000073e+00 1.909739999999999993e+00 1.915270000000000028e+00 3.277320000000000011e+00 1.887639999999999985e+00 6.695960000000000356e+00 1.613110000000000044e+00 4.425589999999999691e+00 1.901669999999999972e+00 1.587690000000000046e+00 4.617460000000000342e+00 6.847109999999999808e+00 1.919240000000000057e+00 1.752839999999999954e+00 8.870169999999999888e+00 1.489330000000000043e+00 9.670600000000000307e-01 2.549440000000000150e+00 1.555409999999999959e+00 9.942499999999999671e-01 7.215849999999999653e+00 2.426000000000000031e-02 3.549690000000000012e+00 2.534769999999999968e+00 1.593999999999999931e-02 3.587110000000000021e+00 7.404709999999999681e+00 4.654370000000000118e+00 8.549999999999999822e-01 2.352160000000000029e+00 4.748280000000000278e+00 9.752600000000000158e-01 7.563360000000000305e+00 3.204070000000000196e+00 3.617280000000000051e+00 2.564430000000000209e+00 3.163510000000000044e+00 3.683730000000000171e+00 7.446180000000000021e+00 -2.931999999999999884e-02 1.840600000000000014e+00 4.901340000000000252e+00 1.562699999999999922e-01 1.933780000000000054e+00 1.002600999999999942e+01 -1.435710000000000042e+00 4.527260000000000062e+00 4.906830000000000247e+00 -1.502899999999999903e+00 4.390889999999999738e+00 1.301700000000000079e-01 3.199609999999999843e+00 1.922199999999999909e+00 4.874660000000000437e+00 3.051810000000000134e+00 1.942890000000000006e+00 3.914999999999999730e-02 1.674190000000000067e+00 4.543569999999999887e+00 4.927940000000000431e+00 1.569609999999999950e+00 4.409819999999999851e+00 6.331000000000000516e-02
1.679249999999999909e+00 1.103150000000000075e+00 4.415199999999999569e+00 1.788589999999999902e+00 9.485200000000000298e-01 1.738999999999999921e-02 2.194500000000000062e-01 3.701540000000000052e+00 4.338860000000000383e+00 7.910000000000000364e-02 3.987159999999999815e+00 9.307610000000000383e+00 4.724590000000000067e+00 8.476000000000000201e-01 4.277949999999999697e+00 4.800220000000000375e+00 1.042659999999999920e+00 9.326040000000000774e+00 3.334760000000000169e+00 3.750950000000000006e+00 4.404650000000000176e+00 3.372110000000000163e+00 3.751850000000000129e+00 9.470459999999999212e+00 6.700000000000000400e-02 1.867620000000000058e+00 1.933780000000000054e+00 -1.403800000000000048e-01 1.906190000000000051e+00 6.789329999999999643e+00 -1.451189999999999980e+00 4.564919999999999867e+00 1.923650000000000082e+00 -1.425249999999999906e+00 4.752779999999999561e+00 6.600120000000000431e+00 3.304110000000000102e+00 1.875869999999999926e+00 1.962190000000000101e+00 3.167510000000000048e+00 2.078780000000000072e+00 6.867420000000000080e+00 1.690900000000000070e+00 4.674019999999999619e+00 1.840400000000000036e+00 1.540750000000000064e+00 4.690719999999999779e+00 6.934560000000000279e+00 1.285420000000000007e+00 9.000599999999999712e-01 8.984469999999999956e+00 1.694369999999999932e+00 8.429100000000000481e-01 2.438410000000000188e+00 1.579630000000000090e+00 1.082200000000000051e+00 7.090939999999999799e+00 1.433800000000000074e-01 3.737639999999999851e+00 2.377110000000000056e+00 4.762000000000000260e-02 3.723819999999999908e+00 7.390469999999999651e+00 4.765369999999999884e+00 8.547900000000000498e-01 2.313540000000000152e+00 4.630980000000000096e+00 1.080370000000000053e+00 7.475150000000000183e+00 3.175879999999999814e+00 3.729080000000000172e+00 2.550209999999999866e+00 3.275850000000000151e+00 3.895459999999999923e+00 7.479739999999999611e+00 7.667999999999999816e-02 1.866640000000000077e+00 4.912420000000000009e+00 1.802999999999999881e-01 2.014079999999999870e+00 9.994529999999999248e+00 -1.323800000000000088e+00 4.667060000000000208e+00 4.755160000000000053e+00 -1.509160000000000057e+00 4.780890000000000306e+00 9.956830000000000069e+00 3.214539999999999953e+00 2.017180000000000195e+00 5.035099999999999909e+00 3.271250000000000213e+00 1.965889999999999915e+00 9.579000000000000015e-02 1.616190000000000015e+00 4.736539999999999750e+00 5.160079999999999778e+00 1.464990000000000014e+00 4.657799999999999940e+00 1.186000000000000075e-02
1.338170000000000082e+00 8.789099999999999691e-01 4.437599999999999767e+00 1.254450000000000065e+00 8.052099999999999813e-01 1.542499999999999982e-01 1.099799999999999944e-01 3.742469999999999963e+00 4.415320000000000356e+00 -9.350000000000000672e-03 3.716060000000000141e+00 9.613099999999999312e+00 4.543730000000000047e+00 9.066199999999999815e-01 4.654180000000000206e+00 4.767400000000000304e+00 1.096289999999999987e+00 9.517200000000000770e+00 3.071969999999999867e+00 3.743290000000000006e+00 4.416789999999999772e+00 2.986419999999999852e+00 3.711749999999999883e+00 9.500009999999999621e+00 1.680999999999999855e-02 1.933629999999999960e+00 2.093830000000000080e+00 -2.302899999999999947e-01 1.908330000000000082e+00 7.035759999999999792e+00 -1.689880000000000049e+00 4.527779999999999916e+00 1.920080000000000009e+00 -1.619040000000000035e+00 4.684099999999999930e+00 6.882929999999999993e+00 3.109560000000000102e+00 1.738059999999999938e+00 1.862659999999999982e+00 2.914670000000000094e+00 1.901200000000000001e+00 6.983869999999999578e+00 1.555579999999999963e+00 4.781839999999999868e+00 1.874169999999999892e+00 1.610300000000000065e+00 4.630829999999999558e+00 6.957390000000000185e+00 2.025119999999999809e+00 5.707100000000000506e-01 9.158360000000000056e+00 1.426960000000000006e+00 9.473599999999999799e-01 2.461349999999999927e+00 1.376390000000000002e+00 8.970599999999999685e-01 7.477680000000000327e+00 2.374000000000000069e-02 3.859750000000000014e+00 2.504100000000000215e+00 6.295000000000000595e-02 3.869320000000000093e+00 7.621220000000000105e+00 4.757590000000000430e+00 9.577499999999999902e-01 2.559229999999999894e+00 4.705110000000000348e+00 1.062319999999999931e+00 7.536999999999999922e+00 3.176039999999999974e+00 3.693839999999999790e+00 2.524890000000000079e+00 3.161550000000000082e+00 3.750230000000000175e+00 7.478860000000000063e+00 -7.519000000000000683e-02 1.938379999999999992e+00 5.045460000000000278e+00 -1.428500000000000048e-01 1.992520000000000069e+00 1.929599999999999926e-01 -1.643080000000000096e+00 4.654650000000000176e+00 4.907060000000000421e+00 -1.511330000000000062e+00 4.458300000000000374e+00 6.289000000000000146e-02 2.827920000000000211e+00 1.779840000000000089e+00 5.044410000000000061e+00 3.129719999999999835e+00 1.928630000000000067e+00 1.007480999999999938e+01 1.621320000000000094e+00 4.569890000000000008e+00 5.050150000000000361e+00 1.599630000000000107e+00 4.835689999999999600e+00 1.007849000000000039e+01
1.882060000000000066e+00 9.403399999999999537e-01 4.378790000000000404e+00 2.414919999999999956e+00 6.980600000000000138e-01 9.562229999999999563e+00 1.563199999999999867e-01 3.576700000000000212e+00 4.212589999999999613e+00 2.146599999999999897e-01 3.479880000000000084e+00 9.197160000000000224e+00 4.908000000000000362e+00 1.083660000000000068e+00 4.196970000000000312e+00 4.928919999999999746e+00 9.536400000000000432e-01 9.212049999999999628e+00 3.277449999999999974e+00 3.790700000000000180e+00 4.189960000000000129e+00 3.437120000000000175e+00 3.664909999999999890e+00 9.247980000000000089e+00 6.808999999999999775e-02 1.790489999999999915e+00 1.853990000000000027e+00 2.574999999999999858e-02 1.949489999999999945e+00 6.423119999999999941e+00 -1.466010000000000035e+00 4.586350000000000371e+00 1.881620000000000070e+00 -1.258170000000000011e+00 4.587950000000000195e+00 6.702989999999999782e+00 3.257029999999999870e+00 1.833690000000000042e+00 2.007690000000000197e+00 3.270280000000000076e+00 1.958830000000000071e+00 6.929529999999999745e+00 1.830699999999999994e+00 4.423399999999999999e+00 1.735479999999999912e+00 1.919960000000000111e+00 4.650649999999999729e+00 6.802109999999999879e+00 1.216390000000000082e+00 7.350499999999999812e-01 8.947319999999999496e+00 1.722620000000000040e+00 8.825399999999999912e-01 2.349779999999999980e+00 1.712990000000000013e+00 9.824300000000000255e-01 7.104269999999999641e+00 2.428400000000000003e-01 3.728299999999999947e+00 2.359329999999999927e+00 2.482499999999999984e-01 3.697020000000000195e+00 7.263939999999999841e+00 4.882150000000000212e+00 9.222299999999999942e-01 2.456840000000000135e+00 4.882859999999999978e+00 1.166949999999999932e+00 7.318520000000000358e+00 3.350499999999999812e+00 3.693690000000000140e+00 2.393089999999999939e+00 3.504579999999999806e+00 3.829369999999999941e+00 7.350249999999999950e+00 2.673599999999999866e-01 1.837429999999999897e+00 4.632030000000000314e+00 -1.845199999999999896e-01 1.703470000000000040e+00 6.567000000000000615e-02 -1.364419999999999966e+00 4.405979999999999563e+00 4.773080000000000211e+00 -1.164949999999999930e+00 4.535000000000000142e+00 9.751219999999999999e+00 3.449419999999999931e+00 2.093700000000000117e+00 4.912779999999999703e+00 3.181589999999999918e+00 1.936490000000000045e+00 1.273900000000000032e-01 1.845849999999999991e+00 4.653979999999999784e+00 4.979659999999999975e+00 2.008820000000000050e+00 4.603900000000000325e+00 9.686669999999999447e+00
1.561020000000000074e+00 8.084400000000000475e-01 4.434840000000000337e+00 1.491069999999999895e+00 5.947799999999999754e-01 1.031193999999999988e+01 2.595199999999999729e-01 3.489580000000000126e+00 4.429219999999999935e+00 3.040100000000000025e-01 3.481500000000000039e+00 9.648229999999999862e+00 4.717609999999999637e+00 8.507900000000000462e-01 4.465309999999999668e+00 4.825800000000000090e+00 7.573800000000000532e-01 9.675079999999999458e+00 3.326029999999999820e+00 3.561010000000000009e+00 4.466070000000000206e+00 3.438709999999999933e+00 3.366389999999999993e+00 9.500519999999999854e+00 -8.619000000000000272e-02 1.898740000000000094e+00 1.964320000000000066e+00 2.194299999999999862e-01 1.817989999999999995e+00 6.954799999999999649e+00 -1.594349999999999934e+00 4.441250000000000142e+00 2.031829999999999803e+00 -1.195610000000000062e+00 4.494629999999999903e+00 7.062619999999999898e+00 2.978990000000000027e+00 1.821709999999999940e+00 1.924020000000000064e+00 3.223570000000000046e+00 1.894150000000000000e+00 6.919260000000000410e+00 1.628430000000000044e+00 4.599029999999999951e+00 1.953559999999999963e+00 1.770720000000000072e+00 4.476779999999999760e+00 7.122609999999999886e+00 1.790440000000000031e+00 1.385259999999999936e+00 9.049440000000000595e+00 1.500830000000000108e+00 8.166200000000000125e-01 2.444830000000000059e+00 1.862260000000000026e+00 8.456500000000000128e-01 7.362219999999999764e+00 -1.047000000000000014e-02 3.594770000000000021e+00 2.689150000000000151e+00 1.509500000000000008e-01 3.469549999999999912e+00 7.732730000000000103e+00 4.568130000000000024e+00 9.115499999999999714e-01 2.517189999999999817e+00 4.898620000000000196e+00 8.381999999999999451e-01 7.647789999999999644e+00 3.063009999999999788e+00 3.615470000000000184e+00 2.651050000000000129e+00 3.334560000000000191e+00 3.534400000000000208e+00 7.663350000000000328e+00 9.181999999999999884e-02 1.760270000000000001e+00 5.074200000000000266e+00 -2.252200000000000035e-01 1.991020000000000012e+00 5.798999999999999988e-02 -1.374290000000000012e+00 4.534180000000000099e+00 5.146490000000000009e+00 -1.507670000000000066e+00 4.392750000000000377e+00 1.571200000000000097e-01 3.247390000000000221e+00 1.654300000000000104e+00 5.151169999999999582e+00 3.370779999999999887e+00 1.697640000000000038e+00 1.025789999999999935e+01 1.689219999999999944e+00 4.456019999999999648e+00 5.217399999999999594e+00 1.884710000000000107e+00 4.362260000000000026e+00 1.030639000000000038e+01
1.623240000000000016e+00 9.035100000000000353e-01 4.410479999999999734e+00 1.838959999999999928e+00 1.057469999999999910e+00 1.837000000000000091e-02 1.980200000000000016e-01 3.756689999999999863e+00 4.326959999999999695e+00 4.093300000000000272e-01 3.746230000000000171e+00 9.425140000000000740e+00 4.849619999999999820e+00 9.867299999999999960e-01 4.443010000000000126e+00 4.862969999999999793e+00 9.438800000000000523e-01 9.372379999999999711e+00 3.260269999999999779e+00 3.822360000000000202e+00 4.443430000000000213e+00 3.626030000000000086e+00 3.684790000000000010e+00 9.411419999999999675e+00 3.484999999999999903e-02 1.981570000000000054e+00 2.218350000000000044e+00 -7.346999999999999365e-02 1.858049999999999979e+00 6.809650000000000425e+00 -1.324340000000000073e+00 4.630489999999999995e+00 1.927310000000000079e+00 -1.365939999999999932e+00 4.662040000000000184e+00 6.831559999999999633e+00 3.379879999999999995e+00 1.931990000000000096e+00 2.126250000000000195e+00 3.247450000000000170e+00 1.728979999999999961e+00 6.947519999999999918e+00 1.835520000000000040e+00 4.709249999999999936e+00 1.827820000000000000e+00 1.855990000000000029e+00 4.530660000000000132e+00 6.840169999999999639e+00 1.245149999999999979e+00 8.940200000000000369e-01 9.031159999999999854e+00 1.697889999999999899e+00 1.157669999999999977e+00 2.473809999999999842e+00 1.462089999999999890e+00 9.996599999999999930e-01 7.188329999999999664e+00 2.760199999999999876e-01 3.820809999999999818e+00 2.522699999999999942e+00 5.602000000000000035e-02 3.737190000000000012e+00 7.498549999999999827e+00 4.902720000000000411e+00 9.949599999999999556e-01 2.444879999999999942e+00 4.847120000000000317e+00 8.275400000000000533e-01 7.422419999999999796e+00 3.438829999999999831e+00 3.782610000000000028e+00 2.602440000000000087e+00 3.372180000000000177e+00 3.488539999999999974e+00 7.338059999999999583e+00 7.308000000000000607e-02 1.791309999999999958e+00 4.768279999999999852e+00 -9.452000000000000679e-02 1.916740000000000110e+00 1.201600000000000029e-01 -1.464390000000000081e+00 4.512900000000000134e+00 4.952600000000000335e+00 -1.299770000000000092e+00 4.673000000000000043e+00 3.488999999999999740e-02 3.160779999999999923e+00 1.597750000000000004e+00 4.971750000000000114e+00 3.352230000000000043e+00 2.000929999999999875e+00 2.172399999999999887e-01 1.707840000000000025e+00 4.569560000000000066e+00 4.999290000000000234e+00 2.134469999999999867e+00 4.708829999999999849e+00 9.734199999999999520e+00
1.669980000000000020e+00 7.373899999999999899e-01 4.462209999999999788e+00 1.700760000000000050e+00 5.454400000000000359e-01 1.019012999999999991e+01 3.686699999999999977e-01 3.491389999999999993e+00 4.458569999999999922e+00 2.856899999999999995e-01 3.406569999999999876e+00 9.590020000000000877e+00 4.699099999999999611e+00 7.536500000000000421e-01 4.553919999999999746e+00 4.716849999999999987e+00 6.611700000000000355e-01 9.562649999999999650e+00 3.230770000000000142e+00 3.622829999999999995e+00 4.366710000000000313e+00 3.178259999999999863e+00 3.306259999999999977e+00 9.691520000000000579e+00 -1.835000000000000173e-02 1.712669999999999915e+00 2.046380000000000088e+00 1.430200000000000082e-01 1.589550000000000018e+00 6.847290000000000099e+00 -1.402560000000000029e+00 4.367519999999999847e+00 2.033729999999999816e+00 -1.303469999999999906e+00 4.232949999999999768e+00 7.063780000000000392e+00 3.149220000000000130e+00 1.774969999999999937e+00 1.982529999999999903e+00 3.131479999999999819e+00 1.743160000000000043e+00 6.765690000000000204e+00 1.643129999999999979e+00 4.471519999999999939e+00 1.851830000000000087e+00 1.783779999999999921e+00 4.304389999999999716e+00 7.101740000000000386e+00 1.630929999999999991e+00 1.006890000000000063e+00 9.008060000000000400e+00 1.625529999999999919e+00 8.385200000000000431e-01 2.477219999999999978e+00 1.731579999999999897e+00 6.758800000000000363e-01 7.200569999999999915e+00 1.817999999999999894e-01 3.568680000000000074e+00 2.557249999999999801e+00 2.607999999999999763e-01 3.318649999999999878e+00 7.679000000000000270e+00 4.635309999999999597e+00 8.354000000000000314e-01 2.585280000000000022e+00 4.704480000000000217e+00 7.891299999999999981e-01 7.363299999999999734e+00 3.098120000000000207e+00 3.609150000000000080e+00 2.520000000000000018e+00 3.340869999999999784e+00 3.259619999999999962e+00 7.798779999999999824e+00 8.491999999999999549e-02 1.762950000000000017e+00 4.923860000000000348e+00 -1.544999999999999984e-01 1.877189999999999914e+00 3.660999999999999671e-02 -1.330529999999999990e+00 4.408190000000000275e+00 5.050300000000000011e+00 -1.665350000000000108e+00 4.428749999999999964e+00 1.780799999999999883e-01 3.306929999999999925e+00 1.836100000000000065e+00 4.913280000000000314e+00 3.131359999999999921e+00 1.819360000000000088e+00 1.029800000000000021e-01 1.691780000000000062e+00 4.368529999999999802e+00 5.243409999999999904e+00 1.557940000000000103e+00 4.677900000000000169e+00 3.518000000000000294e-02