-2.636530312699999854e+02
-2.641281990699999938e+02
-2.624316582600000061e+02
-2.608269386399999803e+02
-2.634558580500000176e+02
-2.644772682500000087e+02
-2.630833122299999900e+02
-2.619136014499999874e+02
-2.621386933800000065e+02
-2.633439192499999990e+02
-2.619720628300000271e+02
-2.632721568900000193e+02
-2.619409555099999807e+02
-2.617209875500000180e+02
-2.638596850000000131e+02
-2.639609051799999975e+02
-2.600645363300000099e+02
-2.640120367200000260e+02
-2.608929867100000024e+02
-2.623610842900000080e+02
-2.643886778400000139e+02
-2.613323409199999787e+02
-2.625983721800000126e+02
-2.617564877899999942e+02
-2.615888466399999857e+02
-2.618096590700000093e+02
-2.642566410399999768e+02
-2.611631756300000120e+02
-2.637191833800000040e+02
-2.604063051699999960e+02
-2.644771481099999733e+02
-2.638380434200000195e+02
-2.612733852000000070e+02
-2.602698631000000091e+02
-2.636788394999999809e+02
-2.634253598600000146e+02
-2.633923007999999868e+02
-2.634078548100000035e+02
-2.604050894900000230e+02
-2.635510464000000184e+02
-2.601045350499999813e+02
-2.642825599600000146e+02
-2.611921091599999727e+02
-2.653316952700000115e+02
-2.638887529900000004e+02
-2.644742059000000154e+02
-2.614762643299999922e+02
-2.634986137700000199e+02
-2.643583077399999866e+02
-2.605310294799999724e+02
