-7.791190000000000060e-01 3.874230000000000174e-01 -3.578290000000000082e-01 1.292972000000000010e+00 -1.018046000000000006e+00 -1.507654000000000050e+00 -6.532010000000000316e-01 -2.778390000000000026e-01 5.530499999999999999e-02 -7.456439999999999735e-01 -1.128569999999999990e-01 4.382530000000000037e-01 -1.536207000000000100e+00 -2.421000000000000096e-01 -3.245339999999999892e-01 5.790330000000000199e-01 2.232022999999999868e+00 4.142200000000000049e-02 1.443316000000000043e+00 -4.218950000000000200e-01 -1.457076999999999956e+00 1.426590999999999942e+00 -2.659009999999999985e-01 -8.967479999999999896e-01 7.001370000000000093e-01 1.366276000000000046e+00 9.445770000000000000e-01 -1.205392999999999937e+00 -8.361999999999999642e-03 -1.068983000000000017e+00 -1.272480000000000000e-01 -8.701630000000000198e-01 1.379021000000000052e+00 -6.500029999999999974e-01 -6.744609999999999772e-01 -2.609250000000000180e-01 2.545555999999999930e+00 7.214129999999999709e-01 -8.452060000000000128e-01 -5.479899999999999771e-01 -6.693480000000000540e-01 -6.309230000000000116e-01 4.142589999999999884e-01 -1.275460999999999956e+00 -4.318830000000000169e-01 -1.094510000000000094e+00 8.647240000000000482e-01 1.757381000000000082e+00 -2.570720000000000227e-01 -1.894810000000000105e-01 3.964480000000000226e-01 4.440000000000000197e-02 -2.950300000000000145e-01 4.537140000000000062e-01 -6.561780000000000390e-01 3.051399999999999946e-02 2.059712000000000209e+00 -2.016344000000000136e+00 1.189761000000000069e+00 -7.497730000000000228e-01 2.332371999999999890e+00 -2.344381999999999966e+00 -1.682798999999999934e+00 -6.552170000000000494e-01 -2.906050000000000022e-01 1.135162000000000004e+00 1.880549000000000026e+00 7.186679999999999735e-01 -1.197824000000000000e+00 -8.793140000000000400e-01 -3.613500000000000045e-02 -1.186696999999999891e+00 2.457429999999999892e-01 6.379029999999999978e-01 -6.563900000000000290e-01 1.339569999999999927e-01 -3.271709999999999896e-01 2.046987000000000112e+00 -6.157569999999999988e-01 -1.573719000000000090e+00 -1.059193999999999969e+00 3.670189999999999841e-01 1.119124000000000008e+00 6.914979999999999460e-01 -1.248321999999999932e+00 1.559268000000000098e+00 9.315919999999999757e-01 1.533997000000000055e+00 3.839949999999999752e-01 -3.788540000000000241e-01 -1.708687999999999985e+00 1.036351999999999940e+00 1.811029000000000000e+00 5.292289999999999495e-01 -6.263199999999999323e-02 -1.484324999999999894e+00 -9.292400000000000659e-02 -1.291857000000000033e+00 2.035518999999999856e+00
4.543179999999999996e-01 1.204414000000000096e+00 2.577749999999999764e-01 -1.058462000000000014e+00 -2.728175999999999934e+00 5.674709000000000003e+00 -6.334220000000000406e-01 2.695400000000000018e-01 -5.510699999999999488e-01 -9.949620000000000131e-01 -1.449419000000000013e+00 -2.256129000000000051e+00 -1.106411000000000033e+00 6.663449999999999651e-01 -1.139880000000000060e-01 -5.714949999999999752e-01 5.796999999999999931e-01 1.381660000000000110e-01 2.022524999999999906e+00 -1.190134999999999943e+00 -9.302839999999999998e-01 -1.642722999999999933e+00 1.781729999999999980e-01 -9.396500000000000685e-02 -5.100780000000000314e-01 5.931290000000000173e-01 -1.779155999999999960e+00 -7.944290000000000518e-01 9.711959999999999482e-01 1.603984000000000076e+00 1.326864999999999961e+00 -3.661969999999999947e-01 1.368357000000000046e+00 1.500721999999999889e+00 4.942949999999999844e-01 -8.667019999999999724e-01 3.304499999999999799e-02 3.140069999999999806e-01 -2.445710000000000106e-01 -4.158859999999999779e-01 7.539310000000000178e-01 -1.564229000000000092e+00 8.270619999999999639e-01 -3.547859999999999903e-01 4.922429999999999861e-01 1.409143000000000034e+00 6.603280000000000260e-01 6.205530000000000213e-01 -9.573300000000000143e-01 3.554650999999999783e+00 -5.747469999999999857e+00 1.170523999999999898e+00 -1.281260000000000066e+00 -5.795100000000000251e-02 1.437958999999999987e+00 -8.913069999999999604e-01 8.242900000000000227e-02 -7.830749999999999655e-01 -9.202470000000000372e-01 -2.274609999999999965e-01 -1.201935999999999893e+00 -1.783369999999999955e-01 5.924449999999999994e-01 4.332239999999999980e-01 4.978879999999999972e-01 4.608849999999999891e-01 -1.665894999999999904e+00 4.055279999999999996e-01 3.295549999999999868e-01 -2.277589999999999892e-01 9.986880000000000202e-01 6.752040000000000264e-01 -6.822780000000000511e-01 -1.176736000000000004e+00 7.578890000000000349e-01 -5.510299999999999920e-02 7.622520000000000406e-01 -2.745534000000000141e+00 7.562269999999999825e-01 1.192939999999999973e-01 1.130800999999999945e+00 -7.474680000000000213e-01 -1.261751999999999985e+00 1.239004999999999912e+00 -2.148819999999999897e-01 -1.752710999999999908e+00 5.875059999999999727e-01 7.237699999999999689e-02 1.143828000000000067e+00 8.488520000000000509e-01 1.675219000000000014e+00 1.511870999999999965e+00 -9.135699999999999377e-02 -9.274970000000000159e-01 -7.553210000000000202e-01 -7.555099999999999316e-02 2.071882000000000001e+00 -1.372675000000000090e+00 4.850610000000000199e-01
-1.021117000000000052e+00 6.439930000000000376e-01 -2.187749999999999972e-01 -3.497529999999999806e-01 2.609870000000000245e-01 -2.015503999999999962e+00 -7.919610000000000261e-01 -8.944079999999999808e-01 1.925999999999999978e-03 -6.699880000000000280e-01 -2.963480000000000003e-01 2.660988000000000131e+00 3.289940000000000087e-01 -3.536770000000000191e-01 -1.416930999999999941e+00 4.179390999999999856e+00 6.881450000000000067e-01 -1.461954999999999893e+00 8.336120000000000196e-01 4.767500000000000210e-02 1.764950999999999937e+00 -5.683789999999999676e-01 -2.485952999999999857e+00 -7.490139999999999576e-01 9.022059999999999524e-01 6.970650000000000457e-01 7.963499999999999746e-02 1.174716000000000093e+00 2.378629999999999911e-01 1.779733999999999927e+00 9.149639999999999995e-01 7.865300000000000069e-02 3.967600000000000016e-01 -1.989920000000000022e-01 -7.516509999999999581e-01 -2.883589999999999764e-01 2.638159999999999950e-01 7.237299999999999844e-01 1.134055000000000035e+00 5.559089999999999865e-01 -1.096880999999999995e+00 -2.349415000000000031e+00 5.941619999999999679e-01 -2.080710999999999977e+00 -2.634870000000000267e-01 8.744539999999999536e-01 -2.683419999999999916e+00 7.365159999999999485e-01 -2.801839999999999886e-01 -1.306229999999999891e-01 4.124420999999999893e+00 3.225649999999999906e-01 -1.316105000000000080e+00 6.859439999999999982e-01 -6.759960000000000413e-01 -1.355785999999999936e+00 -1.941993999999999998e+00 -1.744296999999999986e+00 -3.327970000000000095e-01 2.279140000000000055e-01 4.433159999999999878e-01 -9.259420000000000428e-01 -4.323439999999999728e+00 -9.798440000000000483e-01 2.595171999999999812e+00 1.986297999999999897e+00 -7.526709999999999789e-01 3.776478000000000002e+00 -1.486480000000000024e-01 1.461341000000000001e+00 -8.588099999999999623e-01 -7.929140000000000077e-01 -1.512070000000000081e-01 2.667743999999999893e+00 -3.422899999999999832e-01 4.405649999999999844e-01 -1.134082000000000034e+00 -3.351310000000000122e-01 -2.461240000000000094e+00 9.359089999999999909e-01 -1.182123000000000035e+00 -1.763948999999999989e+00 1.069080999999999948e+00 1.054926999999999948e+00 -3.238550000000000040e-01 -4.919439999999999924e-01 -9.752210000000000045e-01 -3.028680000000000261e-01 2.580200000000000271e-01 6.182109999999999550e-01 -1.553449999999999998e+00 3.483744000000000174e+00 1.287476999999999983e+00 7.742959999999999843e-01 2.284210000000000129e-01 -1.224501999999999979e+00 5.254459999999999686e-01 -1.203546000000000005e+00 1.489948000000000050e+00
1.276760000000000117e-01 -8.578289999999999527e-01 7.098389999999999977e-01 -1.657918999999999921e+00 -2.047915999999999848e+00 -1.536907000000000023e+00 3.958309999999999884e-01 -4.550599999999999784e-02 -2.211069999999999869e+00 1.706530000000000102e+00 -2.020153999999999783e+00 9.461700000000000665e-02 -1.662512999999999908e+00 5.586659999999999959e-01 -1.665492999999999890e+00 -2.590501999999999860e+00 2.212490000000000012e-01 9.189910000000000023e-01 -7.775980000000000114e-01 3.413702999999999932e+00 -5.162569999999999659e-01 -5.342059999999999587e-01 1.459480000000000111e+00 1.153437000000000046e+00 1.824707999999999997e+00 -2.966206000000000120e+00 -2.761674999999999880e+00 1.812659999999999938e+00 -1.995638999999999941e+00 7.795349999999999779e-01 9.632720000000000171e-01 4.801500000000000212e-01 -2.301179999999999892e-01 -7.047539999999999916e-01 1.118638999999999939e+00 -1.096459000000000072e+00 4.110010000000000052e-01 1.229363999999999901e+00 -1.163272000000000084e+00 -2.457437999999999789e+00 -6.307829999999999826e-01 -2.644359999999999822e+00 -9.799440000000000373e-01 2.850329999999999808e-01 3.782964000000000215e+00 -1.456048000000000009e+00 9.269770000000000509e-01 2.468212999999999990e+00 -8.374449999999999950e-01 1.666905000000000081e+00 3.469971999999999834e+00 -1.250780000000000003e+00 -5.859680000000000444e-01 -4.703979999999999828e-01 -9.989679999999999671e-01 1.362314000000000025e+00 -1.123096000000000094e+00 4.590699999999999781e-01 1.561511000000000093e+00 2.660445999999999867e+00 -4.908520000000000105e-01 -8.154010000000000424e-01 -9.981370000000000520e-01 9.149599999999999400e-02 -1.014523999999999981e+00 1.636133999999999977e+00 3.282627999999999879e+00 -1.868170000000000108e-01 4.607200000000000184e-01 7.702189999999999870e-01 -8.997330000000000050e-01 1.899440000000000017e-01 1.802971000000000101e+00 9.857590000000000519e-01 6.005260000000000042e-01 -2.457578999999999958e+00 3.043833999999999929e+00 9.461749999999999883e-01 -2.879671999999999787e+00 -8.193380000000000107e-01 -1.895701999999999998e+00 3.634710999999999803e+00 -1.140735999999999972e+00 3.792670000000000208e-01 -1.188736999999999933e+00 -5.600789999999999935e-01 1.762300999999999895e+00 2.153731000000000062e+00 -3.166058000000000039e+00 7.648979999999999668e-01 4.996691000000000216e+00 1.064149999999999929e+00 5.621119999999999450e-01 -1.975235999999999992e+00 -8.861419999999999852e-01 -1.624714999999999909e+00 4.669980000000000242e-01 1.261095000000000077e+00 -3.402433999999999958e+00
1.982220000000000093e-01 -2.426817999999999920e+00 -1.314689999999999914e+00 -8.162409999999999943e-01 -1.059023000000000048e+00 -5.619389999999999663e-01 -8.068579999999999641e-01 6.261219999999999564e-01 2.007140999999999842e+00 -7.640160000000000284e-01 8.545739999999999448e-01 1.977931000000000106e+00 -1.223873999999999906e+00 3.978689999999999727e-01 1.406614999999999949e+00 9.064619999999999900e-01 2.309900999999999982e+00 7.376840000000000064e-01 -3.094761999999999791e+00 -2.016173999999999911e+00 -1.091407000000000016e+00 -1.596422000000000008e+00 -9.437910000000000466e-01 1.091380000000000017e+00 8.790510000000000268e-01 -6.002699999999999703e-02 4.595300000000000079e-02 1.847580000000000000e+00 -2.943859999999999810e-01 -9.134390000000000009e-01 -3.598500000000000032e-01 -8.979310000000000347e-01 2.170269999999999977e-01 -8.967439999999999856e-01 -1.066219999999999946e+00 -6.099000000000000254e-03 -9.053409999999999513e-01 2.231720000000000093e-01 8.788979999999999571e-01 1.290354999999999919e+00 3.105729999999999880e-01 4.924419999999999908e-01 1.672560000000000047e+00 -1.396735000000000060e+00 -2.185548999999999964e+00 1.318408000000000024e+00 -4.210590000000000166e-01 2.869320000000000204e-01 -1.554396000000000111e+00 7.601949999999999541e-01 2.764639999999999875e-01 -4.043120000000000047e-01 2.145577999999999985e+00 2.481470000000000065e-01 -8.999009999999999510e-01 1.647415000000000074e+00 1.073830000000000062e-01 -1.380471999999999921e+00 -1.453430000000000000e-01 -1.032216000000000022e+00 8.751370000000000537e-01 -2.076330000000000120e-01 -1.744674999999999976e+00 5.412460000000000049e-01 6.745349999999999957e-01 7.901610000000000023e-01 -8.112169999999999659e-01 -6.949769999999999559e-01 6.794780000000000264e-01 -4.000589999999999979e-01 1.665169999999999983e-01 1.622541000000000011e+00 -8.224620000000000264e-01 -1.648370000000000113e-01 -1.519149000000000083e+00 -1.723046000000000078e+00 6.651569999999999983e-01 8.696230000000000349e-01 -4.437519999999999798e-01 -7.409689999999999888e-01 -1.738026000000000071e+00 3.586733999999999867e+00 1.571522000000000086e+00 8.065729999999999844e-01 3.647381999999999902e+00 1.395326000000000066e+00 5.796609999999999818e-01 1.687759000000000009e+00 3.633629999999999916e-01 -3.615769999999999817e-01 1.885542999999999969e+00 -1.432098000000000093e+00 -1.606562000000000046e+00 -4.197750000000000092e-01 -1.765690000000000037e-01 -1.239123999999999892e+00 -1.012936000000000059e+00 3.276899999999999952e-02 1.924190000000000067e-01
-1.888880000000000003e-01 2.312960000000000016e-01 3.199819999999999887e-01 -8.199290000000000189e-01 -1.471211000000000046e+00 2.250090999999999841e+00 -1.066092999999999957e+00 2.813419999999999810e-01 -4.016750000000000043e-01 -1.756968000000000085e+00 2.754809999999999759e-01 5.746919999999999806e-01 -1.774249999999999994e-01 1.300249999999999906e+00 1.114451999999999998e+00 3.956310000000000104e-01 -9.005589999999999984e-01 -1.101485000000000047e+00 -7.712020000000000541e-01 1.052788000000000057e+00 4.160800000000000054e-01 1.444771000000000027e+00 -4.087879999999999847e-01 -5.312109999999999888e-01 -8.719850000000000101e-01 8.773290000000000255e-01 8.502290000000000125e-01 -7.944820000000000215e-01 -1.770504000000000078e+00 -1.459319999999999951e+00 1.981608999999999954e+00 -1.533519999999999883e-01 -6.594879999999999631e-01 4.742060000000000164e-01 -2.233539999999999970e-01 4.284220000000000250e-01 -5.389770000000000394e-01 -1.068743999999999916e+00 6.100210000000000354e-01 -5.985160000000000480e-01 1.247079999999999994e-01 1.422539999999999916e+00 -7.757810000000000539e-01 -4.444919999999999982e-01 3.803710000000000147e-01 4.164829999999999921e-01 -1.313001000000000085e+00 1.158040000000000042e-01 -1.439346999999999932e+00 -1.739829999999999988e-01 -3.553284999999999805e+00 1.799400000000000110e+00 -7.845799999999999996e-02 -1.302859999999999907e+00 1.670762999999999998e+00 1.211257000000000028e+00 -7.417789999999999662e-01 1.569810000000000094e-01 5.714089999999999447e-01 -4.948060000000000236e-01 8.219260000000000455e-01 2.525889999999999969e+00 9.755869999999999820e-01 1.951050000000000006e-01 1.243651999999999980e+00 -5.288899999999999851e-02 -8.515599999999999836e-01 8.178119999999999834e-01 -1.289750000000000063e-01 -1.078810000000000047e+00 -1.873049999999999993e-01 -9.074090000000000211e-01 -1.276919999999999999e-01 -5.483320000000000416e-01 5.644479999999999498e-01 2.416659999999999919e-01 -6.826480000000000325e-01 8.124080000000000190e-01 -1.385745000000000005e+00 -5.456290000000000306e-01 -3.010800000000000143e-01 2.434199999999999905e-02 2.368100000000000066e-02 5.365469999999999962e-01 -5.122659999999999991e-01 -1.200668999999999986e+00 -3.663629999999999942e-01 4.894319999999999782e-01 -1.980324999999999891e+00 4.873099999999999654e-02 3.208206000000000113e+00 5.910320000000000018e-01 8.928829999999999822e-01 2.212109999999999910e-01 -1.645129999999999926e-01 8.052970000000000406e-01 2.139340000000000130e-01 2.187936999999999799e+00 -1.115958000000000006e+00
4.035480000000000178e-01 -1.619444000000000106e+00 -4.575150000000000050e-01 3.063004999999999978e+00 1.466553999999999913e+00 2.747447000000000195e+00 -1.994410000000000072e-01 1.177050000000000041e-01 -3.427140000000000186e-01 9.606749999999999456e-01 -2.312044999999999906e+00 7.268580000000000041e-01 4.474369999999999736e-01 1.349895999999999985e+00 1.288771000000000111e+00 1.585336000000000078e+00 -5.765529999999999822e-01 9.863690000000000513e-01 -1.571110000000000007e+00 6.419359999999999511e-01 2.685799999999999993e-02 -2.401545000000000041e+00 3.683250000000000135e-01 -1.721254000000000062e+00 5.584959999999999924e-01 -1.101170000000000065e-01 -1.449858000000000091e+00 2.051101000000000063e+00 8.291669999999999874e-01 -4.568280000000000118e-01 -1.006096000000000101e+00 2.508349999999999747e-01 3.733540000000000192e-01 -3.509439999999999782e-01 -1.555050000000000043e-01 2.630119000000000096e+00 -1.261503999999999959e+00 5.864709999999999646e-01 -2.138819999999999888e-01 -4.199180000000000135e-01 -4.422960000000000225e-01 8.882949999999999458e-01 -4.675770000000000204e-01 -1.623043999999999931e+00 -5.991400000000000059e-01 1.678009000000000084e+00 7.330140000000000544e-01 1.329452999999999996e+00 -2.769257000000000080e+00 -6.472050000000000303e-01 -4.424195000000000100e+00 1.173450000000000049e-01 1.907607999999999970e+00 -2.349259999999999959e-01 -5.794820000000000526e-01 -8.523389999999999578e-01 7.850700000000000456e-01 -3.899489999999999901e-01 -1.026280999999999999e+00 1.692042999999999964e+00 -8.968319999999999625e-01 6.475629999999999997e-01 3.634249999999999980e-01 2.450720000000000121e-01 2.019997000000000043e+00 3.340968000000000160e+00 2.472109999999999863e-01 -1.290642999999999985e+00 -9.509299999999999697e-02 1.032609000000000110e+00 -1.031091999999999897e+00 3.015599999999999878e-02 -2.916059999999999763e-01 4.558500000000000052e-02 -3.342700000000000116e-01 -1.624940000000000051e+00 4.037669999999999870e-01 -1.248877000000000015e+00 -9.592920000000000336e-01 1.386306000000000038e+00 -4.928069999999999951e-01 -7.818289999999999962e-01 3.969509999999999983e-01 5.693350000000000355e-01 2.459846000000000199e+00 -5.003790000000000182e-01 1.150959999999999983e+00 1.153010000000000090e+00 -7.648329999999999851e-01 -2.463604999999999823e+00 -8.357660000000000089e-01 6.514980000000000215e-01 1.250472000000000028e+00 9.484280000000000488e-01 -7.659359999999999502e-01 -3.588330000000000020e+00 -1.440430000000000044e-01 -8.546800000000000230e-02 -2.056659999999999933e+00
5.872030000000000305e-01 5.605569999999999720e-01 -8.360340000000000549e-01 7.751510000000000344e-01 3.052799999999999958e-01 -2.461485999999999841e+00 -2.244761000000000006e+00 -2.797209999999999974e-01 1.178140000000000021e-01 1.299119999999999997e-01 -3.602020000000000222e-01 1.694500000000000173e-02 1.105753999999999904e+00 8.329969999999999875e-01 -1.887971999999999984e+00 -7.337259999999999893e-01 -3.003759999999999764e-01 -1.645530000000000048e-01 1.686652000000000040e+00 -1.453151000000000082e+00 -3.208810000000000273e-01 2.025011000000000116e+00 1.367589999999999917e-01 -1.371799999999999964e-01 -3.359847999999999946e+00 1.421116999999999964e+00 -5.780210000000000070e-01 3.020741999999999816e+00 1.326913999999999927e+00 -1.051131000000000038e+00 1.232046999999999892e+00 -2.134890000000000121e-01 1.686933999999999934e+00 -3.180359999999999854e-01 -1.238291999999999948e+00 -4.098430000000000129e-01 7.656049999999999800e-01 1.742380000000000040e+00 4.346820000000000128e-01 1.221797999999999940e+00 1.725160000000000027e-01 -7.711890000000000134e-01 1.138682999999999890e+00 -1.158951000000000064e+00 -4.282580000000000275e-01 -3.770180000000000198e-01 1.192730000000000068e+00 7.283990000000000187e-01 -1.310210000000000097e+00 1.231786000000000048e+00 2.831398000000000081e+00 2.310872999999999955e+00 -1.282329999999999970e+00 -9.093099999999999516e-01 5.486149999999999638e-01 9.293500000000000094e-01 -5.635329999999999506e-01 -2.656899999999999887e-02 -1.050369000000000108e+00 4.345789999999999931e-01 -1.968485999999999958e+00 -1.422414000000000067e+00 2.564560000000000173e-01 -8.008619999999999628e-01 7.404129999999999878e-01 1.215788000000000091e+00 -2.223478000000000065e+00 -1.114981999999999918e+00 1.603600000000000164e-02 -1.333333000000000101e+00 -7.453520000000000145e-01 -5.607809999999999739e-01 1.046129999999999977e-01 -6.673710000000000475e-01 8.534150000000000347e-01 -2.349781000000000120e+00 -4.452809999999999824e-01 3.035680000000000045e-01 1.202056000000000013e+00 2.313489999999999991e-01 -6.720209999999999795e-01 8.785099999999999854e-02 -1.595399999999999929e+00 1.357706000000000079e+00 -1.145596000000000059e+00 1.463754999999999917e+00 -1.294404000000000110e+00 3.276803000000000132e+00 9.108859999999999735e-01 4.895430000000000059e-01 -8.254380000000000051e-01 -9.618520000000000403e-01 4.723499999999999921e-01 -1.303657999999999983e+00 2.395065999999999917e+00 5.920239999999999947e-01 -8.985670000000000046e-01 -1.304321999999999981e+00 1.238961999999999897e+00
-5.264259999999999495e-01 -3.313670000000000226e-01 -8.479139999999999455e-01 6.859389999999999654e-01 2.032846999999999849e+00 -1.028590000000000060e-01 1.703939000000000092e+00 2.178545999999999871e+00 -2.754829999999999779e-01 1.546076000000000006e+00 7.799500000000000322e-01 -7.989260000000000250e-01 2.486690000000000011e-01 -1.205138999999999960e+00 3.006473000000000173e+00 1.846869999999999901e-01 6.515020000000000255e-01 -1.078899999999999998e-02 1.407691999999999943e+00 -8.887799999999999867e-02 2.488618000000000219e+00 2.071356000000000197e+00 -5.020059999999999523e-01 -7.354030000000000289e-01 6.923660000000000370e-01 1.965830000000000077e-01 7.962609999999999966e-01 9.776770000000000183e-01 -3.216200000000000170e-01 3.594192000000000053e+00 6.360550000000000370e-01 -1.970113999999999921e+00 -4.003200000000000092e-01 -1.072030000000000038e+00 -3.281870000000000065e-01 -5.381190000000000140e-01 1.193510000000000071e+00 5.866620000000000168e-01 -1.222140000000000004e+00 6.664409999999999501e-01 8.428029999999999688e-01 -2.184544999999999959e+00 -1.339652000000000065e+00 2.355980000000000185e+00 8.057870000000000310e-01 -1.128576999999999941e+00 4.858319999999999861e-01 3.271419999999999884e-01 -3.705829999999999957e-01 -3.126729999999999787e-01 -2.348859000000000030e+00 -3.246339999999999781e-01 1.369648999999999894e+00 1.562983000000000011e+00 -1.766448000000000018e+00 6.289120000000000266e-01 -8.164879999999999916e-01 -1.161046000000000022e+00 -1.252097999999999933e+00 -2.660930000000000240e-01 7.223209999999999908e-01 -1.171939000000000064e+00 4.442820000000000102e-01 -6.698119999999999630e-01 -3.981149999999999967e-01 -1.909705999999999904e+00 1.201562999999999937e+00 -1.386215999999999893e+00 1.131670000000000037e-01 3.457870000000000110e-01 -8.663980000000000015e-01 -6.988699999999999912e-01 -2.956369999999999831e-01 -8.668940000000000534e-01 9.498339999999999561e-01 -7.457359999999999545e-01 -9.251749999999999696e-01 4.431789999999999896e-01 -1.063447999999999949e+00 2.189964999999999939e+00 -8.931499999999999995e-01 3.366060000000000163e-01 2.806436000000000153e+00 2.828629999999999756e-01 -2.156959000000000071e+00 -4.057731000000000421e+00 1.031209999999999960e+00 -1.531217000000000050e+00 -2.943121000000000098e+00 -5.431789999999999674e-01 3.162923000000000151e+00 1.470483999999999902e+00 2.530640000000000112e-01 -1.261873999999999940e+00 7.339440000000000408e-01 -1.886986999999999970e+00 -2.369527999999999857e+00 -3.824239999999999862e-01 3.807780000000000054e-01
1.585534999999999917e+00 2.152999999999999966e-03 7.340379999999999683e-01 1.275992000000000015e+00 1.142289999999999972e-01 -2.577566000000000024e+00 -8.876450000000000173e-01 1.660504999999999898e+00 2.654444999999999943e+00 -9.879989999999999606e-01 8.368039999999999923e-01 8.820580000000000087e-01 1.174309999999999937e-01 -1.342330999999999941e+00 3.052679999999999838e-01 1.544169999999999987e-01 -6.192429999999999879e-01 -1.007406999999999941e+00 -1.346313000000000093e+00 -2.624170000000000114e-01 1.848338999999999954e+00 3.902599999999999819e-02 2.114809000000000161e+00 2.275465000000000071e+00 -3.017859999999999987e-01 -4.055449999999999888e-01 3.699720000000000231e-01 -9.030059999999999754e-01 -1.518081999999999931e+00 -2.766959999999999975e-01 1.470058000000000087e+00 3.247720000000000051e-01 -6.309439999999999493e-01 -1.713141000000000025e+00 -1.650679999999999925e-01 -8.047029999999999461e-01 1.178276000000000101e+00 3.147860000000000102e-01 -4.815860000000000141e-01 2.654046999999999823e+00 -1.525064999999999893e+00 3.128909999999999747e-01 -1.251096999999999904e+00 -7.117250000000000520e-01 -9.225079999999999947e-01 -1.720859999999999890e-01 2.818209999999999882e-01 -1.401930000000000121e-01 2.372579999999999967e-01 -2.176321000000000172e+00 4.081876000000000282e+00 -7.871869999999999701e-01 9.613019999999999898e-01 9.150200000000000000e-02 -1.935551000000000021e+00 1.952990000000000004e-01 5.904059999999999864e-01 6.302489999999999482e-01 5.418730000000000491e-01 -2.249178999999999817e+00 2.250529999999999919e+00 9.221219999999999972e-01 5.195659999999999723e-01 1.935620000000000118e-01 2.835110000000000130e-01 5.970710000000000184e-01 -7.957370000000000276e-01 -1.802199999999999983e-02 5.173790000000000333e-01 -3.471790000000000154e-01 -7.230010000000000048e-01 -2.956349999999999811e-01 -1.922069999999999890e-01 1.140565000000000051e+00 -2.295860000000000123e-01 2.798499999999999946e-02 -1.155159999999999937e-01 -4.013129999999999753e-01 2.073036000000000101e+00 -1.264076999999999895e+00 2.611780000000000213e-01 2.205610000000000070e-01 -1.410333999999999977e+00 -1.167221999999999982e+00 -5.097819999999999574e-01 1.415350000000000108e+00 -1.005646999999999958e+00 -9.276950000000000474e-01 2.143907000000000007e+00 -2.728733000000000075e+00 -2.089960000000000040e+00 -1.037773000000000057e+00 4.008140000000000036e-01 1.072508000000000017e+00 -1.349150000000000071e-01 -1.384441000000000033e+00 -3.209800000000000153e-02 1.756250000000000033e-01 -1.389070000000000027e-01
-1.467660000000000076e-01 -6.325070000000000414e-01 -6.384549999999999947e-01 1.579517999999999978e+00 1.112932999999999950e+00 2.409876000000000129e+00 -7.607439999999999758e-01 -7.720900000000000540e-01 1.603917999999999955e+00 -9.437919999999999643e-01 -3.156419999999999781e-01 -1.060640000000000055e-01 -9.734819999999999585e-01 -1.321199999999999930e+00 -7.025190000000000046e-01 8.031420000000000226e-01 2.060465000000000213e+00 7.685579999999999634e-01 1.369979000000000058e+00 -1.912787999999999933e+00 7.320100000000000218e-02 3.708150000000000057e-01 1.732399999999999912e-02 -4.709320000000000173e-01 5.453909999999999592e-01 -3.232610000000000205e-01 -2.732210999999999945e+00 -9.405099999999999572e-02 1.171346999999999916e+00 -1.022801000000000071e+00 -1.026774000000000076e+00 4.618010000000000170e-01 6.377300000000000191e-01 -1.447427000000000019e+00 -1.208936999999999928e+00 -6.168240000000000389e-01 -7.521369999999999445e-01 1.046349999999999891e+00 -1.349568000000000101e+00 -8.154169999999999474e-01 -6.044570000000000221e-01 -1.461670000000000025e+00 7.502999999999999670e-01 -7.167930000000000135e-01 -9.357500000000000540e-02 -1.141059000000000045e+00 -4.337550000000000017e-01 1.722355999999999998e+00 -2.201337999999999795e+00 -2.672039999999999971e-01 -1.518748999999999905e+00 1.613499999999999934e-01 -2.497345000000000148e+00 -5.486029999999999518e-01 1.312875999999999932e+00 -8.387729999999999908e-01 1.096187999999999940e+00 -4.598240000000000105e-01 8.373439999999999772e-01 -1.310780999999999974e+00 1.607809000000000044e+00 -1.312631000000000103e+00 2.900600000000000053e-02 -2.865420000000000189e-01 -1.231206000000000023e+00 2.251403999999999961e+00 2.384759999999999935e-01 1.297152000000000083e+00 1.743540000000000090e-01 -3.428019999999999956e-01 6.786290000000000378e-01 -1.065625000000000044e+00 9.790569999999999551e-01 2.203206000000000220e+00 1.191591000000000067e+00 -1.325547000000000031e+00 1.761891000000000096e+00 1.581056000000000017e+00 8.757120000000000459e-01 5.504750000000000476e-01 -1.581712000000000007e+00 2.962650000000000006e-01 2.926210000000000200e-01 -9.661699999999999455e-02 -4.298790000000000111e-01 -1.163540999999999936e+00 -1.824409999999999921e-01 2.538648999999999933e+00 2.650856999999999797e+00 5.465619999999999923e-01 8.906720000000000192e-01 6.866400000000000281e-02 -1.060807000000000055e+00 5.750269999999999548e-01 1.225079000000000029e+00 -3.401489999999999791e-01 -1.747460000000000013e+00 -1.884007999999999905e+00 2.814302000000000081e+00