-1.451770999999999923e+00 -2.855949999999999878e-01 6.122800000000000464e-01 2.585180000000000256e-01 -5.279939999999999634e-01 -9.898329999999999629e-01 -4.032700000000000173e-02 -1.553473000000000104e+00 1.762836000000000070e+00 -1.835172000000000025e+00 2.616956000000000060e+00 -5.410205000000000375e+00 4.265289999999999915e-01 -6.916120000000000045e-01 8.278069999999999595e-01 5.273800000000000016e-02 6.851800000000000113e-01 -1.140975999999999990e+00 1.338880000000000070e-01 -1.218285000000000062e+00 -6.863400000000000056e-02 1.666142000000000012e+00 -2.219997000000000220e+00 2.301337000000000188e+00 6.287629999999999608e-01 2.679099999999999884e-02 -9.091069999999999984e-01 1.979539999999999911e-01 -5.586149999999999727e-01 -1.616851999999999956e+00 -3.748759999999999870e-01 8.557399999999999451e-01 -1.796052999999999900e+00 -2.226339999999999986e-01 1.192395000000000094e+00 -5.936409999999999743e-01 -5.028059999999999752e-01 8.566850000000000298e-01 -2.099918999999999869e+00 1.720151999999999903e+00 4.574829999999999730e-01 1.556613000000000024e+00 1.027169999999999916e+00 2.991139999999999910e-01 -1.968129000000000017e+00 2.960840000000000138e+00 4.517900000000000249e-01 4.930390000000000050e-01 1.396599999999999925e-02 2.879550000000000165e-01 7.931610000000000049e-01 3.532959999999999989e-01 7.221819999999999906e-01 -1.477951999999999932e+00 1.085903999999999980e+00 -1.476372000000000018e+00 1.355831000000000008e+00 -1.735084999999999988e+00 1.049630000000000063e+00 8.168200000000000460e-02 1.017198000000000047e+00 -3.216740000000000155e-01 -4.827290000000000192e-01 -1.727152000000000021e+00 9.865429999999999477e-01 1.235411999999999955e+00 6.838600000000000234e-01 1.318013000000000101e+00 -2.260429999999999939e-01 -1.975772000000000084e+00 4.842270000000000185e-01 1.575725999999999960e+00 -5.644890000000000185e-01 -1.349450000000000038e+00 1.629019999999999913e+00 -8.633899999999999908e-01 -1.545736999999999917e+00 -7.341699999999999893e-01 -9.819780000000000175e-01 6.754029999999999756e-01 7.518199999999999883e-02 -1.964035999999999893e+00 -6.227850000000000330e-01 -1.035932999999999993e+00 -3.746840000000000170e-01 -3.103500000000000147e-01 1.538829999999999920e+00 -1.581069999999999975e-01 4.004579999999999806e-01 -4.416649999999999743e-01 3.943249999999999811e-01 -8.335580000000000211e-01 1.766469999999999985e-01 -1.206509999999999944e-01 -1.554955000000000087e+00 -6.924329999999999652e-01 -2.424904999999999866e+00 8.397639999999999549e-01 2.002336000000000116e+00 4.297460000000000169e-01 -8.966129999999999933e-01 -5.243600000000000344e-02 -9.422500000000000320e-02 1.728850000000000109e-01 1.576000999999999985e+00 2.120302000000000131e+00 8.867169999999999774e-01 1.456598999999999977e+00 7.084529999999999994e-01 4.040270000000000250e-01 1.263757999999999937e+00 4.892610000000000015e-01 -7.311499999999999944e-02 -1.773381000000000096e+00 2.896050000000000013e-01 -1.535279999999999978e+00 -1.454039999999999999e+00 -4.443110000000000115e-01 2.536789999999999878e-01 2.946219999999999950e-01 -3.779330000000000189e-01 -1.984569999999999945e-01 -3.285120000000000262e-01 -6.803500000000000103e-01 -1.797130000000000116e-01 5.153729999999999700e-01 -2.066359999999999864e-01 2.114698000000000189e+00 -3.516380000000000061e-01 -9.508039999999999825e-01 3.925859999999999905e-01 -1.150735000000000063e+00 1.043976000000000015e+00 -1.155467999999999940e+00 -1.923853000000000035e+00 -7.456580000000000430e-01 -3.257610000000000228e-01 -5.853650000000000242e-01 -1.339606999999999992e+00 9.201219999999999954e-01 1.339577000000000018e+00 1.084850000000000092e+00 6.382660000000000000e-01 -1.331309999999999993e+00 3.369923000000000002e+00 -5.544299999999999784e-01 6.171873999999999860e+00
-1.055242999999999931e+00 9.130209999999999715e-01 4.110030000000000072e-01 4.196300000000000030e-02 -1.618003000000000080e+00 5.394809999999999883e-01 -8.150410000000000155e-01 4.184399999999999925e-02 9.582370000000000054e-01 4.621410000000000240e-01 -9.357419999999999627e-01 -1.111051000000000011e+00 -2.173160000000000092e-01 4.085269999999999735e-01 1.239238000000000062e+00 -1.033770000000000078e+00 -9.477659999999999973e-01 -3.967550000000000243e-01 9.756209999999999605e-01 -9.914399999999999880e-01 -6.072389999999999732e-01 -2.507789999999999742e-01 9.479999999999999495e-04 4.392800000000000177e-02 4.313319999999999932e-01 4.851679999999999882e-01 3.382350000000000079e-01 5.557520000000000238e-01 -7.954919999999999769e-01 -7.713729999999999754e-01 4.081099999999999728e-01 6.393370000000000442e-01 1.762084999999999901e+00 1.455720000000000069e-01 -2.866389999999999771e-01 2.117001999999999828e+00 -4.538999999999999632e-03 -4.108740000000000170e-01 -1.804820000000000035e-01 -6.880650000000000377e-01 -4.464210000000000123e-01 7.058680000000000510e-01 -2.838499999999999912e-01 9.035969999999999835e-01 -2.009326999999999863e+00 1.091838000000000086e+00 -7.775189999999999602e-01 -8.624929999999999541e-01 7.363960000000000505e-01 5.609969999999999679e-01 -3.636789999999999745e-01 1.315115000000000034e+00 -1.983087999999999962e+00 -1.186679999999999957e+00 5.630340000000000344e-01 -7.638070000000000137e-01 2.496893000000000029e+00 2.409630000000000105e-01 1.163159999999999972e+00 -3.112050000000000094e-01 -7.673839999999999550e-01 -1.971179999999999877e-01 3.224107000000000056e+00 -1.061453999999999898e+00 1.170198000000000071e+00 -6.981730000000000436e-01 -1.687869999999999926e-01 -9.562979999999999814e-01 4.286280000000000090e-01 -1.418570000000000109e-01 7.985499999999999543e-02 9.502410000000000023e-01 8.346759999999999735e-01 -3.892349999999999977e-01 -1.397720000000000073e+00 1.311723999999999890e+00 1.798543999999999921e+00 4.135550000000000059e-01 3.035874999999999879e+00 -2.584480000000000111e-01 2.353909999999999891e-01 7.756849999999999579e-01 -6.902509999999999479e-01 1.090659999999999963e-01 4.338299999999999795e-02 -9.869999999999999607e-02 -1.387988999999999917e+00 -3.341830000000000078e-01 7.732090000000000352e-01 1.615350000000000119e-01 1.155385000000000106e+00 -1.861369999999999969e-01 1.654160000000000075e-01 -1.693586000000000036e+00 -5.538739999999999775e-01 -5.586619999999999919e-01 -9.159340000000000259e-01 6.441599999999999548e-01 -6.215899999999999759e-01 -5.490969999999999462e-01 -8.211129999999999818e-01 1.086446000000000023e+00 -1.535655999999999910e+00 -9.080610000000000070e-01 8.505719999999999947e-01 -5.692019999999999857e-01 7.239630000000000232e-01 -5.850099999999999745e-02 -1.269195000000000073e+00 -4.902900000000000313e-02 9.389140000000000263e-01 1.132833999999999897e+00 1.524788000000000032e+00 -5.031740000000000101e-01 -6.973399999999999599e-01 -2.668152000000000079e+00 4.476999999999999730e-02 -1.715877000000000097e+00 6.231470000000000065e-01 5.487399999999999917e-02 -1.723338999999999954e+00 -1.365109999999999935e-01 2.637019999999999920e-01 -2.565250000000000030e-01 1.283590000000000009e-01 -1.959848999999999952e+00 1.875985000000000014e+00 4.766050000000000009e-01 -1.846440000000000026e-01 -1.517270000000000008e-01 1.751584999999999948e+00 1.162403000000000075e+00 7.653799999999999493e-02 9.522490000000000121e-01 -2.932589999999999919e-01 -6.801540000000000363e-01 1.091649000000000092e+00 -3.769064000000000192e+00 9.740100000000000424e-01 9.342369999999999841e-01 -4.130449999999999955e-01 2.340187999999999935e+00 -6.250010000000000288e-01 3.359480000000000244e-01 -1.944220000000000059e+00 7.055709999999999482e-01 -1.391583000000000014e+00
3.844299999999999801e-02 -7.463599999999999401e-02 -7.324279999999999680e-01 -5.003969999999999807e-01 7.210630000000000095e-01 5.323069999999999746e-01 -3.262199999999999822e-02 2.411315999999999793e+00 5.911640000000000228e-01 -1.247522999999999938e+00 3.969349999999999823e-01 -8.311640000000000139e-01 -4.467900000000000205e-01 3.218150000000000177e-01 -7.557829999999999826e-01 -1.693189999999999973e-01 9.852170000000000094e-01 9.814499999999999613e-02 -4.208319999999999839e-01 7.257600000000000162e-02 -7.679559999999999720e-01 2.259625000000000217e+00 -2.390623000000000165e+00 2.245572000000000124e+00 -1.359058000000000099e+00 3.249739999999999851e-01 -8.008629999999999916e-01 2.199279000000000206e+00 6.558279999999999665e-01 -1.641642999999999963e+00 -3.119230000000000058e-01 -1.229813999999999963e+00 -1.121086000000000027e+00 9.618170000000000330e-01 1.436428999999999956e+00 3.572080000000000255e-01 -2.081998000000000015e+00 1.112120999999999915e+00 -1.218776999999999999e+00 6.809260000000000312e-01 9.853110000000000479e-01 -7.274819999999999620e-01 8.027109999999999523e-01 -5.790520000000000111e-01 2.536369000000000096e+00 -8.111100000000000254e-02 -2.128582999999999892e+00 9.210270000000000401e-01 -6.122999999999999970e-02 -4.144880000000000231e-01 5.087200000000000055e-02 -5.203499999999999792e-02 -9.889729999999999910e-01 -4.650610000000000022e-01 1.790167999999999981e+00 2.004390000000000061e-01 1.248626999999999931e+00 9.177899999999999947e-02 -9.261789999999999745e-01 -5.319270000000000387e-01 1.322570000000000134e-01 -2.819050000000000167e-01 7.363799999999999513e-02 -1.776178000000000035e+00 1.521554000000000073e+00 5.206290000000000084e-01 -8.703130000000000033e-01 -9.517989999999999506e-01 -1.162495999999999974e+00 1.239336999999999911e+00 -1.806208999999999953e+00 -6.404849999999999710e-01 1.245692000000000021e+00 -6.585299999999999487e-01 8.886460000000000470e-01 -1.004870000000000069e-01 -2.814019999999999855e-01 -4.616770000000000040e-01 -1.723978999999999928e+00 -1.139979000000000076e+00 1.993820000000000037e-01 8.408280000000000198e-01 1.718820000000000014e+00 3.540000000000000091e-02 3.442589999999999817e-01 1.528421000000000030e+00 5.647499999999999742e-02 -4.034369999999999901e-01 8.209840000000000471e-01 -5.266100000000000225e-01 -1.173653000000000057e+00 9.603840000000000154e-01 2.336940000000000128e-01 8.616570000000000062e-01 -1.245157000000000069e+00 3.656190000000000273e-01 5.432759999999999811e-01 -5.297549999999999759e-01 3.587200000000000111e-02 -2.686540000000000039e-01 8.559660000000000046e-01 7.205420000000000158e-01 9.994520000000000071e-01 2.082230000000000025e+00 7.687370000000000037e-01 -7.746039999999999592e-01 1.330187000000000008e+00 -7.551160000000000094e-01 1.850703999999999905e+00 -2.835204000000000057e+00 7.684090000000000087e-01 -8.389189999999999703e-01 1.254730000000000012e-01 -2.533710000000000129e-01 2.069369000000000014e+00 -1.950669999999999904e-01 5.015969999999999596e-01 3.367470000000000185e-01 -1.309876000000000040e+00 -7.020859999999999879e-01 -3.328610000000000180e-01 1.415216000000000030e+00 2.703990000000000005e-01 -4.945629999999999749e-01 1.283609000000000000e+00 -8.473859999999999726e-01 8.330100000000000005e-02 -1.981535999999999964e+00 -3.871510000000000229e-01 -1.431944000000000106e+00 1.920080000000000120e-01 -1.189980000000000038e+00 -2.095828000000000024e+00 1.719910000000000050e+00 1.137240000000000056e-01 -1.320891000000000037e+00 8.165780000000000260e-01 7.508639999999999759e-01 1.087019999999999931e-01 -9.135670000000000179e-01 1.396600000000000064e+00 2.801660000000000261e-01 -5.231010000000000382e-01 -1.658600000000000074e-01 6.106549999999999478e-01 -2.609929000000000165e+00 4.048700000000000077e-01
2.327410000000000034e-01 1.684919999999999973e+00 -1.555530000000000079e+00 -1.759200000000000097e+00 5.729009999999999936e-01 1.070529000000000064e+00 -6.980509999999999771e-01 -3.362550000000000261e-01 1.424350999999999923e+00 -7.876549999999999940e-01 3.074955999999999801e+00 2.866730000000000000e+00 1.941081999999999974e+00 -1.045133000000000090e+00 1.343550000000000022e-01 1.256993000000000027e+00 2.624440000000000106e-01 8.736399999999999721e-02 2.407469999999999999e+00 5.023766000000000176e+00 -1.686479999999999979e+00 1.538618000000000041e+00 8.920230000000000103e-01 4.466400000000000231e-02 -6.060370000000000479e-01 5.853650000000000242e-01 1.883048999999999973e+00 3.168541999999999970e+00 -2.044764999999999944e+00 -1.415375000000000050e+00 9.081999999999999795e-03 1.125253000000000059e+00 2.171635000000000204e+00 8.802400000000000502e-02 -2.022180000000000089e+00 -1.385399999999999965e+00 -1.632250000000000090e-01 -2.450207999999999942e+00 4.781980000000000119e-01 4.199570000000000247e-01 -8.128699999999999815e-01 -2.260794999999999888e+00 8.013460000000000027e-01 3.348927000000000209e+00 -2.928081999999999852e+00 7.932100000000000262e-02 -1.592378000000000071e+00 -2.013974000000000153e+00 -8.284340000000000037e-01 -3.742500000000000271e-01 -1.610468000000000011e+00 -3.045539999999999914e+00 -3.876479999999999926e-01 -2.042810999999999932e+00 -7.793700000000000072e-01 -3.131041999999999881e+00 1.212390999999999996e+00 -6.411419999999999897e-01 1.312149999999999983e-01 2.112435000000000063e+00 1.750691999999999915e+00 1.591372999999999927e+00 -6.901370000000000005e-01 1.842796000000000101e+00 1.828851999999999922e+00 -2.213337000000000110e+00 -1.031770000000000048e-01 1.045077000000000034e+00 5.701869999999999994e-01 1.369498000000000104e+00 -3.177197000000000049e+00 -2.827359999999999873e-01 -3.518999999999999993e-03 -4.309060000000000112e-01 2.189580000000000137e-01 1.913885999999999976e+00 -9.837639999999999718e-01 6.767279999999999962e-01 1.019350999999999896e+00 2.897370000000000223e-01 1.672843000000000080e+00 -2.760597999999999885e+00 -1.690155999999999992e+00 1.121428000000000091e+00 1.738305999999999907e+00 -5.692869999999999875e-01 -4.494399999999999784e-02 -1.314990000000000103e+00 1.234132000000000007e+00 9.282960000000000100e-01 1.518434000000000061e+00 -1.355690999999999979e+00 -6.037160000000000304e-01 -1.291967000000000088e+00 2.418102000000000196e+00 1.010309999999999958e-01 -1.793979999999999908e+00 6.168749999999999512e-01 3.695260000000000211e-01 3.724339999999999873e-01 -5.454210000000000447e-01 1.667532000000000014e+00 -1.299971999999999905e+00 9.709349999999999925e-01 -2.230618999999999907e+00 2.200057000000000151e+00 2.206611000000000100e+00 1.399630000000000041e-01 -9.143630000000000368e-01 -1.467287999999999926e+00 6.796969999999999956e-01 7.900169999999999693e-01 -1.472634999999999916e+00 1.053531999999999913e+00 -2.541930000000000023e-01 1.094942000000000082e+00 -5.944530000000000092e-01 -8.643800000000000094e-02 6.074600000000000138e-02 -2.219279999999999919e+00 1.507159999999999889e-01 -7.002439999999999776e-01 2.456369000000000025e+00 1.768434000000000061e+00 -1.292928999999999995e+00 1.355470000000000008e-01 -9.116570000000000507e-01 -2.742740000000000178e-01 6.085420000000000273e-01 -3.359710000000000196e-01 2.266887000000000096e+00 -4.243210000000000037e-01 6.256909999999999972e-01 2.267500000000000071e-02 2.028551999999999911e+00 -3.153357000000000188e+00 2.061449999999999949e-01 7.044690000000000119e-01 -1.165251000000000037e+00 -5.234131999999999785e+00 5.094999999999999703e-03 -2.565065999999999846e+00 4.908410000000000273e-01 2.133251000000000008e+00 -1.740336000000000105e+00 3.449539999999999829e-01 -4.554793000000000092e+00
-4.620529999999999915e-01 1.261540000000000106e+00 -1.029037999999999897e+00 2.240113000000000021e+00 3.844406999999999908e+00 1.682209999999999983e+00 7.334950000000000081e-01 1.568937999999999944e+00 1.228922999999999988e+00 4.722400000000000209e-02 -6.638499999999999956e-02 -1.610006999999999966e+00 -1.134525000000000006e+00 -6.046160000000000423e-01 1.971996000000000082e+00 -4.590110000000000023e-01 2.305001999999999995e+00 1.032029000000000085e+00 1.613420000000000076e+00 2.141198000000000157e+00 1.401836000000000082e+00 -3.033215000000000217e+00 -1.861598000000000086e+00 1.028882000000000074e+00 2.071320000000000106e-01 -2.478950000000000209e+00 1.252884000000000109e+00 5.235250000000000181e-01 7.211099999999999455e-02 -4.797930000000000250e-01 -2.939672999999999981e+00 4.578280000000000127e-01 1.399826000000000015e+00 -2.403106000000000186e+00 -1.279627000000000070e+00 1.075300000000000041e-02 -1.386000000000000079e-02 -8.182709999999999706e-01 2.122714999999999907e+00 -1.017455999999999916e+00 1.758340999999999932e+00 -2.320900000000000046e-02 1.328650000000000109e-01 2.827689999999999926e-01 1.019829000000000097e+00 1.533819999999999906e-01 -2.425870000000000193e+00 -2.270560000000000078e-01 -1.218811000000000089e+00 -1.922659999999999925e-01 9.660699999999999843e-01 -4.930629999999999735e-01 -1.271111000000000102e+00 6.722409999999999775e-01 -5.695559999999999512e-01 1.728993999999999920e+00 3.325270000000000170e-01 3.008592999999999851e+00 2.514130000000000198e+00 5.913910000000000000e-01 1.136611000000000038e+00 8.519400000000000583e-02 6.803679999999999728e-01 7.576770000000000449e-01 -5.972159999999999691e-01 -1.043771999999999922e+00 -9.932239999999999958e-01 5.017390000000000461e-01 -1.182387000000000077e+00 -7.313990000000000213e-01 1.203090999999999910e+00 9.018500000000000127e-02 2.449031000000000180e+00 6.631420000000000092e-01 -3.032185000000000130e+00 -8.595260000000000122e-01 -2.280669999999999920e-01 2.893049999999999788e-01 -9.171540000000000248e-01 2.214306000000000108e+00 -2.331361999999999934e+00 -1.292069999999999885e-01 1.096775000000000055e+00 6.844240000000000324e-01 1.061593999999999927e+00 -3.114024999999999821e+00 1.051733999999999947e+00 -1.599049999999999916e-01 -6.778309999999999613e-01 -9.243160000000000265e-01 -4.988730000000000109e-01 -3.978189999999999782e-01 1.521301999999999932e+00 -2.260250000000000092e+00 -1.011497000000000090e+00 -2.075400000000000023e-01 -8.495890000000000386e-01 -4.655250000000000221e-01 7.239670000000000272e-01 -3.625599999999999656e-02 -2.365069999999999950e-01 1.178123999999999949e+00 4.991209999999999813e-01 -1.746837999999999891e+00 1.318050000000000055e-01 1.529177999999999926e+00 -2.111581000000000152e+00 -1.370192999999999994e+00 -2.975168000000000035e+00 -4.062899999999999845e-01 1.253735999999999962e+00 9.789860000000000229e-01 2.505583999999999811e+00 -1.002126999999999990e+00 8.063299999999999634e-02 -1.277188999999999908e+00 -1.835707999999999895e+00 4.823720000000000230e-01 -1.449462000000000028e+00 1.354980000000000073e-01 -2.766009999999999858e-01 -5.574099999999999611e-01 -1.044475999999999960e+00 2.303779000000000021e+00 -3.061990999999999907e+00 -1.239406000000000008e+00 2.668857000000000035e+00 -3.495980000000000198e-01 -1.020868000000000109e+00 6.773630000000000484e-01 1.970149999999999957e-01 -1.251992999999999912e+00 -1.337387000000000103e+00 5.499009999999999732e-01 -1.462361000000000022e+00 -1.033301999999999943e+00 8.096079999999999943e-01 1.778637000000000024e+00 3.359697000000000155e+00 -1.656930000000000069e-01 -1.002177000000000096e+00 1.406516000000000099e+00 1.257033999999999985e+00 -2.237951999999999941e+00 -1.248993999999999938e+00 -1.654150000000000065e-01 -6.752700000000000369e-01
1.301390000000000047e-01 1.768689999999999984e-01 1.694229999999999903e-01 -1.659680000000000044e-01 -1.015790000000000026e-01 -2.427970000000000128e-01 -2.572789999999999799e-01 3.522000000000000131e-01 -2.508940000000000059e-01 -2.451240000000000085e-01 3.993599999999999928e-01 -5.811899999999999705e-02 1.065310000000000007e-01 8.570300000000000140e-02 1.958529999999999993e-01 -3.300339999999999940e-01 2.048900000000000027e-02 -3.542379999999999973e-01 -1.719440000000000135e-01 -7.964860000000000273e-01 8.028299999999999326e-02 -3.056610000000000160e-01 4.246539999999999759e-01 3.460799999999999987e-02 1.734739999999999893e-01 6.301029999999999687e-01 -3.881339999999999790e-01 5.432080000000000242e-01 1.037601999999999913e+00 -5.307570000000000343e-01 6.192600000000000188e-02 3.493680000000000119e-01 6.298610000000000042e-01 7.585400000000000476e-02 -2.268179999999999918e-01 -1.982200000000000073e-01 -4.666520000000000112e-01 -1.719350000000000045e-01 -1.388759999999999994e-01 -4.367309999999999803e-01 3.799620000000000219e-01 1.397599999999999953e-01 -4.215550000000000130e-01 -1.712440000000000073e-01 -3.041969999999999952e-01 3.334909999999999819e-01 2.914619999999999989e-01 -2.085309999999999941e-01 -1.062889999999999946e-01 3.346430000000000238e-01 -4.327590000000000048e-01 3.961640000000000161e-01 -8.939840000000000009e-01 -6.812070000000000070e-01 1.121329999999999966e-01 -3.373510000000000120e-01 2.066979999999999928e-01 2.944510000000000183e-01 -3.773449999999999860e-01 -7.846999999999999809e-02 -1.606180000000000108e-01 2.713079999999999936e-01 1.213670000000000027e-01 4.855199999999999794e-02 4.528499999999999887e-02 -6.674199999999999577e-02 6.985900000000000443e-02 -2.963399999999999923e-01 -4.812389999999999723e-01 -4.743569999999999731e-01 -7.453419999999999490e-01 1.502290000000000014e-01 -2.903999999999999915e-01 5.853859999999999619e-01 -3.215759999999999730e-01 -7.430200000000000693e-02 6.144340000000000357e-01 2.707919999999999772e-01 4.129940000000000278e-01 2.536220000000000141e-01 -2.030810000000000115e-01 2.858120000000000105e-01 -2.526109999999999745e-01 3.059060000000000112e-01 3.203219999999999956e-01 -4.537760000000000127e-01 2.916509999999999936e-01 1.941299999999999970e-01 1.643100000000000116e-01 -3.373940000000000272e-01 1.750559999999999894e-01 -4.880050000000000221e-01 9.611000000000000099e-02 2.806219999999999826e-01 9.295499999999999596e-02 2.239049999999999929e-01 -4.076560000000000183e-01 -7.141999999999999911e-03 1.172289999999999999e-01 -2.001249999999999973e-01 3.474510000000000098e-01 1.073749999999999982e-01 -5.950579999999999758e-01 -3.669379999999999864e-01 1.822390000000000121e-01 7.404900000000000371e-02 1.494729999999999948e-01 1.911410000000000053e-01 -2.055190000000000072e-01 1.154140000000000027e-01 -2.595750000000000002e-01 3.497149999999999981e-01 -2.530400000000000010e-02 -2.768169999999999797e-01 5.439249999999999918e-01 3.666179999999999994e-01 -1.225369999999999931e-01 1.191109999999999947e-01 -1.816869999999999874e-01 1.051659999999999956e-01 -9.471000000000000252e-02 -6.477469999999999617e-01 3.707340000000000080e-01 3.791430000000000078e-01 -5.488520000000000065e-01 3.185580000000000078e-01 -1.739759999999999918e-01 -3.197070000000000189e-01 -8.348800000000000665e-02 -4.351499999999999813e-02 3.770419999999999883e-01 1.679080000000000017e-01 -2.399499999999999966e-01 3.941970000000000196e-01 1.417059999999999986e-01 -2.967270000000000185e-01 -3.754640000000000200e-01 4.398569999999999980e-01 3.287359999999999727e-01 -5.613730000000000109e-01 1.445180000000000076e-01 -3.278260000000000063e-01 -2.929160000000000097e-01 2.122100000000000097e-01 6.825799999999999645e-01 3.800339999999999829e-01 6.045620000000000438e-01
-1.194300000000000049e-02 -1.722470000000000112e-01 -6.976599999999999469e-02 5.610619999999999497e-01 -1.798421999999999965e+00 -2.944120000000000070e-01 1.638050000000000062e-01 6.766800000000000592e-02 -8.016079999999999872e-01 -2.122699999999999934e-02 6.577500000000000013e-02 6.533170000000000366e-01 -2.020669999999999966e-01 8.087290000000000312e-01 -2.730899999999999994e-02 -9.345430000000000126e-01 9.954309999999999548e-01 2.122390000000000110e-01 -2.139969999999999928e-01 2.211190000000000100e-01 -5.491749999999999687e-01 1.278790000000000093e+00 -4.231900000000000106e-01 -1.936910000000000021e-01 -4.150600000000000123e-02 3.878630000000000133e-01 2.266650000000000054e-01 2.090686999999999962e+00 -1.129993999999999943e+00 3.560829999999999829e-01 -8.152199999999999724e-02 -7.613210000000000255e-01 1.921970000000000067e-01 1.876868999999999899e+00 1.637679999999999969e-01 -3.152980000000000227e-01 2.313189999999999968e-01 -7.629850000000000243e-01 -1.905050000000000077e-01 -4.939419999999999922e-01 -8.914279999999999982e-01 -8.205139999999999656e-01 -4.621430000000000260e-01 2.966909999999999825e-01 2.095380000000000020e-01 -5.368950000000000111e-01 2.600500000000000034e-01 6.714390000000000081e-01 1.101889999999999953e-01 1.090206000000000008e+00 -4.016649999999999943e-01 1.161153000000000102e+00 3.414539999999999798e-01 -3.891499999999999820e-02 7.530799999999999716e-01 5.085579999999999545e-01 1.196285000000000043e+00 2.857109999999999927e-01 -7.621689999999999854e-01 5.106509999999999661e-01 -5.205790000000000139e-01 3.415929999999999800e-01 -1.366159999999999874e-01 -7.818400000000000349e-02 3.806899999999999729e-01 -6.670639999999999903e-01 -3.871870000000000034e-01 4.867670000000000052e-01 7.131210000000000049e-01 -4.111400000000000055e-01 5.204450000000000465e-01 2.864659999999999984e-01 -6.339240000000000430e-01 5.782680000000000042e-01 3.101769999999999805e-01 3.951080000000000148e-01 2.291400000000000034e-02 4.390600000000000058e-02 2.961389999999999856e-01 -1.195958000000000077e+00 1.134735999999999967e+00 -6.070280000000000120e-01 -3.043130000000000002e-01 -9.034309999999999841e-01 1.143998000000000070e+00 5.200289999999999635e-01 5.567779999999999951e-01 8.467470000000000274e-01 -1.141999999999999960e-01 -4.578600000000000031e-02 6.356840000000000268e-01 -2.517389999999999906e-01 1.003509999999999958e-01 -5.757050000000000223e-01 6.859999999999999779e-03 -6.922399999999999665e-01 -1.384268000000000054e+00 2.278280000000000027e-01 1.107510000000000022e-01 -4.283350000000000213e-01 3.681420000000000248e-01 7.554769999999999541e-01 -1.628166000000000002e+00 -7.240619999999999834e-01 5.285159999999999858e-01 -5.385199999999999987e-01 3.038509999999999822e-01 -8.022120000000000362e-01 3.495789999999999731e-01 6.800960000000000338e-01 -1.122198000000000029e+00 -4.819490000000000163e-01 1.235047000000000006e+00 -7.293680000000000163e-01 1.115380000000000038e+00 5.741060000000000052e-01 2.322970000000000035e-01 -5.315389999999999837e-01 -1.058390000000000025e-01 -6.230700000000000127e-01 -7.822980000000000489e-01 -1.684391999999999889e+00 1.320999999999999952e-01 -2.435100000000000042e-01 6.742259999999999920e-01 -3.339570000000000038e-01 1.038003000000000009e+00 -1.270126000000000088e+00 7.548970000000000402e-01 -1.096452999999999900e+00 5.525679999999999481e-01 -7.122629999999999795e-01 4.609940000000000149e-01 -5.763220000000000010e-01 -2.775000000000000123e-03 -1.151294999999999957e+00 -1.433810000000000084e-01 -1.657569999999999877e-01 4.075550000000000006e-01 6.170419999999999794e-01 7.622999999999999776e-01 -1.364759999999999862e-01 4.459569999999999923e-01 1.394140000000000101e-01 -5.855120000000000324e-01 -6.716550000000000020e-01 -1.501069999999999904e-01
3.056320000000000148e-01 3.705100000000000060e-02 9.356499999999999539e-02 1.755450000000000066e-01 2.753579999999999917e-01 -1.849250000000000060e-01 1.147300000000000056e-02 -1.484969999999999901e-01 -1.700889999999999902e-01 -6.348989999999999911e-01 9.790569999999999551e-01 -6.830100000000000060e-02 -2.641999999999999904e-02 -2.035589999999999899e-01 -1.255989999999999884e-01 -5.782909999999999995e-01 -3.829279999999999906e-01 -2.059419999999999862e-01 -8.771710000000000340e-01 -1.653959999999999875e-01 1.862739999999999951e-01 -9.041150000000000020e-01 1.188130000000000019e-01 2.799420000000000242e-01 -9.978499999999999870e-02 1.400039999999999896e-01 3.212050000000000183e-01 7.241229999999999611e-01 1.501800000000000079e-01 -5.451110000000000122e-01 -4.786300000000000276e-02 -2.844749999999999779e-01 1.807300000000000018e-01 4.871679999999999899e-01 -5.550359999999999738e-01 1.744050000000000045e-01 -3.686110000000000220e-01 -2.946500000000000230e-01 -2.233699999999999922e-02 -1.420970000000000011e-01 7.493069999999999453e-01 -2.542710000000000248e-01 2.939370000000000038e-01 7.285999999999999421e-02 -1.247390000000000027e-01 3.443999999999999839e-02 -2.415360000000000007e-01 -2.507570000000000077e-01 4.337300000000000183e-02 -1.220829999999999971e-01 -4.012339999999999796e-01 2.137429999999999886e-01 -8.057849999999999735e-01 -1.203359999999999985e-01 5.522660000000000347e-01 1.367879999999999929e-01 4.912900000000000045e-01 2.062999999999999903e-02 5.627640000000000420e-01 2.700999999999999842e-03 5.240000000000000517e-04 -1.577139999999999931e-01 1.958540000000000003e-01 2.117709999999999870e-01 -2.037120000000000042e-01 -3.799779999999999824e-01 4.183330000000000104e-01 1.336060000000000025e-01 4.005969999999999809e-01 5.169999999999999899e-04 9.352900000000000102e-02 -4.542490000000000139e-01 5.264630000000000143e-01 2.945220000000000060e-01 -2.817259999999999764e-01 -1.103858999999999924e+00 -5.534369999999999568e-01 -8.881500000000000505e-02 3.942350000000000021e-01 -6.078280000000000349e-01 3.196709999999999829e-01 -4.602510000000000212e-01 -6.825729999999999853e-01 -5.078880000000000061e-01 -7.413140000000000285e-01 4.860369999999999968e-01 -8.171699999999999797e-02 -7.579660000000000286e-01 3.091929999999999956e-01 6.332989999999999453e-01 -1.691890000000000061e-01 5.864899999999999974e-02 -3.228869999999999796e-01 1.052462999999999926e+00 -4.250680000000000014e-01 -1.246739999999999932e-01 -6.794229999999999992e-01 -7.989540000000000530e-01 -4.436199999999999866e-02 1.694249999999999923e-01 -6.150689999999999769e-01 -8.134600000000000164e-02 2.643590000000000106e-01 3.951040000000000108e-01 1.283600000000000019e-01 5.339469999999999494e-01 1.242706000000000088e+00 7.049170000000000158e-01 1.589399999999999979e-01 -1.368230000000000002e-01 4.818830000000000058e-01 2.518190000000000150e-01 3.115300000000000014e-02 -5.408140000000000169e-01 1.062369999999999981e-01 3.318200000000000316e-02 1.091219999999999968e-01 5.865599999999999703e-01 4.030679999999999819e-01 8.296900000000000108e-02 -5.471399999999999875e-02 -1.652009999999999867e-01 -4.047430000000000194e-01 -7.097040000000000015e-01 6.587830000000000075e-01 1.982099999999999973e-01 4.528449999999999975e-01 6.732699999999999796e-02 -8.107159999999999922e-01 4.385589999999999766e-01 -9.215900000000000480e-02 8.758599999999999719e-01 1.568200000000000149e-02 1.860020000000000007e-01 -1.813629999999999964e-01 -7.922109999999999985e-01 1.326799999999999924e-01 6.941279999999999673e-01 -1.724739999999999884e-01 3.082520000000000260e-01 2.147000000000000037e-03 5.230839999999999934e-01 9.702089999999999881e-01 1.000930000000000014e-01 3.522620000000000196e-01 -1.383699000000000012e+00 1.216990000000000016e-01