6.172224639999999596e+00 0.000000000000000000e+00 0.000000000000000000e+00 -3.193034716000000106e+00 5.410247657000000210e+00 0.000000000000000000e+00 5.707382600000000111e-02 -1.733400699999999850e-02 9.885343862999999232e+00
6.274834092999999946e+00 0.000000000000000000e+00 0.000000000000000000e+00 -3.173871306000000114e+00 5.431170848999999912e+00 0.000000000000000000e+00 -1.266655400000000001e-02 -1.625446499999999919e-02 9.619772993999999855e+00
6.223151750999999621e+00 0.000000000000000000e+00 0.000000000000000000e+00 -2.845042308000000020e+00 5.341138622999999974e+00 0.000000000000000000e+00 -1.698382479999999972e-01 7.431122499999999464e-02 1.005004214400000073e+01
6.105917601999999889e+00 0.000000000000000000e+00 0.000000000000000000e+00 -3.036572798999999989e+00 5.361954393999999624e+00 0.000000000000000000e+00 -5.391514099999999976e-02 -1.535720699999999946e-02 1.010290254899999951e+01
6.150245498000000310e+00 0.000000000000000000e+00 0.000000000000000000e+00 -3.060059105000000113e+00 5.466448701000000021e+00 0.000000000000000000e+00 -4.978620999999999741e-02 4.761349799999999716e-02 9.834751147000000415e+00
6.166379169999999910e+00 0.000000000000000000e+00 0.000000000000000000e+00 -2.970392386999999967e+00 5.380191227000000076e+00 0.000000000000000000e+00 -1.575861000000000015e-03 1.587796310000000044e-01 9.799290641000000690e+00
6.173730371999999633e+00 0.000000000000000000e+00 0.000000000000000000e+00 -3.024691483999999875e+00 5.358435044000000147e+00 0.000000000000000000e+00 1.638525969999999887e-01 1.353247049999999896e-01 1.014794433800000029e+01
6.266008248000000336e+00 0.000000000000000000e+00 0.000000000000000000e+00 -3.169485933999999894e+00 5.471995128999999736e+00 0.000000000000000000e+00 1.683930100000000096e-02 8.654501800000000133e-02 1.017419189900000021e+01
6.227563642999999871e+00 0.000000000000000000e+00 0.000000000000000000e+00 -3.047907615999999820e+00 5.337341904999999720e+00 0.000000000000000000e+00 -5.170074999999999671e-03 1.279000899999999941e-01 1.000851683700000017e+01
5.992223154000000385e+00 0.000000000000000000e+00 0.000000000000000000e+00 -2.890803066000000143e+00 5.250434524000000103e+00 0.000000000000000000e+00 2.869709380000000087e-01 1.505834899999999865e-01 1.012925074900000055e+01
6.275079357000000080e+00 0.000000000000000000e+00 0.000000000000000000e+00 -3.492295164999999812e+00 5.398547827999999882e+00 0.000000000000000000e+00 1.527119690000000030e-01 -1.676063200000000031e-01 9.918216390999999632e+00
6.132246466999999868e+00 0.000000000000000000e+00 0.000000000000000000e+00 -3.005240466000000055e+00 5.300728050000000025e+00 0.000000000000000000e+00 1.518074080000000048e-01 1.223957450000000002e-01 1.014835508300000022e+01
6.180913569000000329e+00 0.000000000000000000e+00 0.000000000000000000e+00 -3.348386710000000210e+00 5.252380851999999933e+00 0.000000000000000000e+00 2.481701360000000134e-01 -2.375364520000000090e-01 9.960529468000000719e+00
6.096924523000000207e+00 0.000000000000000000e+00 0.000000000000000000e+00 -2.956828921000000054e+00 5.378145346000000160e+00 0.000000000000000000e+00 -6.346894599999999831e-02 3.108743860000000026e-01 9.858377291000000042e+00
6.222341617999999741e+00 0.000000000000000000e+00 0.000000000000000000e+00 -3.182387128999999870e+00 5.360062755999999595e+00 0.000000000000000000e+00 6.071816399999999808e-02 -2.371928249999999960e-01 1.007050041499999971e+01
6.177083705000000258e+00 0.000000000000000000e+00 0.000000000000000000e+00 -3.113727488999999959e+00 5.484794802999999774e+00 0.000000000000000000e+00 1.121141099999999925e-02 -1.170003159999999931e-01 9.930258374999999305e+00
6.273412110999999847e+00 0.000000000000000000e+00 0.000000000000000000e+00 -2.955695711999999808e+00 5.502107187000000010e+00 0.000000000000000000e+00 -7.929751599999999845e-02 7.070910599999999380e-02 1.000532661099999920e+01
6.250911390999999817e+00 0.000000000000000000e+00 0.000000000000000000e+00 -3.041783528999999930e+00 5.391132920000000439e+00 0.000000000000000000e+00 2.073137900000000117e-02 1.561559170000000052e-01 9.756039928999999944e+00
6.189872195000000410e+00 0.000000000000000000e+00 0.000000000000000000e+00 -3.006696586999999976e+00 5.344739479000000237e+00 0.000000000000000000e+00 -1.964294700000000088e-02 1.098994900000000025e-01 9.655502600000000157e+00
6.274336117999999907e+00 0.000000000000000000e+00 0.000000000000000000e+00 -3.193160597999999961e+00 5.432982770999999822e+00 0.000000000000000000e+00 -9.987007400000000312e-02 -3.429913600000000090e-02 9.689312660000000577e+00
6.071922091000000243e+00 0.000000000000000000e+00 0.000000000000000000e+00 -2.868251895999999856e+00 5.316419659000000131e+00 0.000000000000000000e+00 7.197472800000000170e-02 2.331786519999999863e-01 1.025498750600000086e+01
6.368584876999999977e+00 0.000000000000000000e+00 0.000000000000000000e+00 -3.228848173999999904e+00 5.407232946999999790e+00 0.000000000000000000e+00 1.052704999999999917e-03 -9.179145499999999402e-02 9.728420728999999767e+00
6.095897561000000131e+00 0.000000000000000000e+00 0.000000000000000000e+00 -2.873516812000000087e+00 5.546376648999999937e+00 0.000000000000000000e+00 -1.341881259999999909e-01 2.648955109999999724e-01 9.862793290999999130e+00
6.089983917999999719e+00 0.000000000000000000e+00 0.000000000000000000e+00 -3.053997370999999905e+00 5.223209813999999618e+00 0.000000000000000000e+00 5.725993000000000402e-03 -3.488996099999999712e-02 9.789472547000000802e+00
6.073589538000000232e+00 0.000000000000000000e+00 0.000000000000000000e+00 -3.018499455999999803e+00 5.264500673999999769e+00 0.000000000000000000e+00 2.609004599999999868e-02 1.007578500000000030e-02 9.865382077999999666e+00
6.154019963999999732e+00 0.000000000000000000e+00 0.000000000000000000e+00 -3.316234137999999998e+00 5.249252477999999833e+00 0.000000000000000000e+00 1.960154640000000004e-01 -4.686532699999999829e-02 9.903180494000000778e+00
6.212436408000000299e+00 0.000000000000000000e+00 0.000000000000000000e+00 -3.244508918999999825e+00 5.367185278000000004e+00 0.000000000000000000e+00 -2.164305700000000027e-02 -1.930909219999999982e-01 9.723732258000000073e+00
6.316874658999999781e+00 0.000000000000000000e+00 0.000000000000000000e+00 -3.211693577000000133e+00 5.375716555000000341e+00 0.000000000000000000e+00 5.155741099999999744e-02 -3.417148999999999968e-03 1.031559516999999992e+01
6.199236294000000314e+00 0.000000000000000000e+00 0.000000000000000000e+00 -3.079334006999999929e+00 5.350013511000000221e+00 0.000000000000000000e+00 8.346878400000000420e-02 8.118453600000000159e-02 1.001327197400000024e+01
6.392539218999999662e+00 0.000000000000000000e+00 0.000000000000000000e+00 -3.399311813000000182e+00 5.412128683999999801e+00 0.000000000000000000e+00 -4.795595600000000097e-02 -2.272859419999999908e-01 9.459709947000000341e+00
6.275931040999999766e+00 0.000000000000000000e+00 0.000000000000000000e+00 -3.061800466999999859e+00 5.516753300999999610e+00 0.000000000000000000e+00 -1.312794899999999987e-02 2.372446799999999856e-02 9.886238267999999607e+00
6.117529545000000013e+00 0.000000000000000000e+00 0.000000000000000000e+00 -2.878098469999999853e+00 5.315122674000000380e+00 0.000000000000000000e+00 -1.237082500000000057e-01 9.259935000000000388e-03 9.790819599000000650e+00
6.227120632000000100e+00 0.000000000000000000e+00 0.000000000000000000e+00 -3.162578059999999969e+00 5.377897466000000293e+00 0.000000000000000000e+00 1.080945440000000007e-01 7.884975499999999360e-02 1.008432683000000019e+01
6.181524794999999628e+00 0.000000000000000000e+00 0.000000000000000000e+00 -3.043840023000000006e+00 5.410918288000000409e+00 0.000000000000000000e+00 -4.752258599999999861e-02 1.340373519999999985e-01 9.861182149999999424e+00
6.166462548000000155e+00 0.000000000000000000e+00 0.000000000000000000e+00 -2.859398049000000164e+00 5.381877596999999902e+00 0.000000000000000000e+00 -8.727139999999999898e-02 5.575432100000000252e-02 9.786579528000000749e+00
6.195976004000000259e+00 0.000000000000000000e+00 0.000000000000000000e+00 -3.133891949000000121e+00 5.370199458000000092e+00 0.000000000000000000e+00 -1.729201469999999963e-01 -6.658915299999999815e-02 9.834564697999999439e+00
6.228960568999999836e+00 0.000000000000000000e+00 0.000000000000000000e+00 -3.086314628999999865e+00 5.278321797000000259e+00 0.000000000000000000e+00 9.499116000000000157e-03 1.236544049999999950e-01 1.009884672099999925e+01
6.041526034000000323e+00 0.000000000000000000e+00 0.000000000000000000e+00 -2.881180829999999915e+00 5.341492063999999651e+00 0.000000000000000000e+00 2.949731300000000070e-02 2.816877369999999936e-01 1.032653627300000032e+01
6.271469692000000151e+00 0.000000000000000000e+00 0.000000000000000000e+00 -3.146433249999999848e+00 5.410744301000000256e+00 0.000000000000000000e+00 -1.522192850000000097e-01 3.536357700000000021e-02 9.684302392999999398e+00
6.188315677000000292e+00 0.000000000000000000e+00 0.000000000000000000e+00 -3.026385395000000145e+00 5.299640020000000007e+00 0.000000000000000000e+00 -2.586388800000000154e-02 1.070584039999999959e-01 9.752169401999999820e+00
6.272149595000000133e+00 0.000000000000000000e+00 0.000000000000000000e+00 -3.265874059999999801e+00 5.311285498000000160e+00 0.000000000000000000e+00 1.133297800000000050e-01 -2.116310700000000045e-02 1.020644344900000000e+01
6.099637324999999777e+00 0.000000000000000000e+00 0.000000000000000000e+00 -2.823069226999999959e+00 5.371539031000000186e+00 0.000000000000000000e+00 -1.285095240000000139e-01 1.439366100000000030e-02 9.758623997000000827e+00
6.297769487000000055e+00 0.000000000000000000e+00 0.000000000000000000e+00 -3.050697081000000033e+00 5.402239391000000168e+00 0.000000000000000000e+00 7.752880700000000513e-02 1.271320039999999929e-01 9.849244110000000774e+00
6.240051788999999793e+00 0.000000000000000000e+00 0.000000000000000000e+00 -3.192847553000000005e+00 5.374584706000000267e+00 0.000000000000000000e+00 3.023485399999999851e-02 -2.253137940000000117e-01 9.851157723000000033e+00
6.295948619999999885e+00 0.000000000000000000e+00 0.000000000000000000e+00 -3.024238201000000181e+00 5.360166537999999647e+00 0.000000000000000000e+00 4.276238499999999998e-02 1.614258159999999998e-01 9.674057465000000633e+00
6.303182501000000215e+00 0.000000000000000000e+00 0.000000000000000000e+00 -3.184127940999999851e+00 5.402692615000000309e+00 0.000000000000000000e+00 4.971759999999999981e-04 1.754027999999999924e-03 1.020080302100000047e+01
6.139105011999999917e+00 0.000000000000000000e+00 0.000000000000000000e+00 -2.991366444000000069e+00 5.353149318999999906e+00 0.000000000000000000e+00 2.137466389999999883e-01 1.210580390000000062e-01 1.019185662099999945e+01
6.167955688000000158e+00 0.000000000000000000e+00 0.000000000000000000e+00 -2.972334980999999932e+00 5.310057642000000300e+00 0.000000000000000000e+00 -1.093156999999999983e-03 1.936515080000000000e-01 9.939414462000000228e+00
6.276150396000000242e+00 0.000000000000000000e+00 0.000000000000000000e+00 -3.041116358000000020e+00 5.434049131000000088e+00 0.000000000000000000e+00 1.036168799999999945e-01 5.710051900000000236e-02 9.686949712000000545e+00
6.368082446999999924e+00 0.000000000000000000e+00 0.000000000000000000e+00 -3.230802590000000141e+00 5.391798288999999578e+00 0.000000000000000000e+00 -9.783737000000000683e-03 -3.247913599999999873e-02 9.616617215999999857e+00
