-2.879689721500000132e+02
-2.873330417199999829e+02
-2.855758801200000221e+02
-2.870090984000000276e+02
-2.908496935100000087e+02
-2.839217556199999990e+02
-2.885829715500000248e+02
-2.911379617200000212e+02
-2.852963781600000175e+02
-2.907796186400000238e+02
-2.884751684199999886e+02
-2.847661097000000154e+02
-2.848599690300000020e+02
-2.905157561799999826e+02
-2.875681226799999877e+02
-2.843012337600000023e+02
-2.859008205800000155e+02
-2.839790970399999992e+02
-2.910805323199999748e+02
-2.911126229899999771e+02
-2.840758709300000078e+02
-2.854275996999999734e+02
-2.887303825600000096e+02
-2.864737685499999884e+02
-2.845952594500000146e+02
-2.840376583299999993e+02
-2.910599276600000280e+02
-2.838023548499999720e+02
-2.882068859500000144e+02
-2.872793196100000159e+02
-2.897171459799999980e+02
-2.835333722999999964e+02
-2.885263866600000142e+02
-2.910195117600000003e+02
-2.874071251899999879e+02
-2.841311369000000013e+02
-2.836738994899999966e+02
-2.909473826299999928e+02
-2.852963781600000175e+02
-2.909294026399999780e+02
-2.902488725100000124e+02
-2.911083225400000174e+02
-2.874928257600000165e+02
-2.889702378900000213e+02
-2.870374411700000223e+02
-2.883696267099999773e+02
-2.879222008699999833e+02
-2.908032889099999920e+02
-2.888572127099999989e+02
-2.840682761300000152e+02
