-4.687540000000000040e-01 1.067069999999999963e-01 8.281070000000000375e-01 -2.066620000000000124e-01 7.559420000000000028e-01 -5.513230000000000075e-01 1.178781999999999996e+00 1.632883000000000084e+00 -1.007717999999999892e+00 9.265630000000000255e-01 9.347429999999999906e-01 -1.260394999999999932e+00 5.707370000000000498e-01 3.211840000000000250e-01 -1.030920000000000031e-01 6.424399999999999555e-02 -3.527879999999999905e-01 -1.402403000000000066e+00 1.642860999999999905e+00 8.893919999999999604e-01 1.651523000000000074e+00 -9.092440000000000522e-01 9.340910000000000046e-01 4.394959999999999978e-01 -2.647956999999999894e+00 1.314634000000000080e+00 5.389770000000000394e-01 -2.542099999999999915e-01 -2.719895000000000174e+00 -1.232706999999999997e+00 -5.176000000000000045e-02 -2.356777999999999818e+00 8.192800000000000082e-01 5.084060000000000246e-01 -6.772559999999999691e-01 -1.063090000000000007e-01 1.322629999999999917e-01 -1.811300000000000063e-02 -2.707840000000000247e-01 1.223850000000000104e+00 -3.453530000000000211e-01 5.381569999999999965e-01 -7.218099999999999516e-02 2.511909999999999976e-01 -1.075720000000000010e-01 6.802740000000000453e-01 9.178000000000000047e-02 -4.257020000000000248e-01 1.723241000000000023e+00 9.128880000000000328e-01 -1.140201000000000020e+00 -1.137477000000000071e+00 8.269389999999999796e-01 -1.614241000000000037e+00 5.531599999999999850e-01 2.098164999999999836e+00 8.689930000000000154e-01 1.708109999999999906e-01 1.449516000000000027e+00 -1.533258000000000010e+00 -3.765899999999999803e-01 1.942999999999999935e-02 6.110379999999999701e-01 1.425983999999999918e+00 -1.698194999999999899e+00 6.860920000000000352e-01 5.553770000000000095e-01 -1.869388000000000050e+00 8.195280000000000342e-01 -7.612839999999999607e-01 5.414630000000000276e-01 -2.889950000000000019e-01 -3.487235000000000085e+00 -2.140502000000000127e+00 -1.206669999999999965e-01 -3.050550000000000206e-01 -4.536910000000000109e-01 -2.361689999999999900e-01 1.021711000000000036e+00 -3.042329999999999757e-01 1.089394999999999891e+00 8.028140000000000276e-01 8.541400000000000381e-02 -7.411100000000000465e-01 -1.093423999999999952e+00 5.843260000000000121e-01 4.432889999999999886e-01 2.662039999999999962e-01 -2.596049999999999747e-01 1.486329000000000011e+00 -9.095079999999999831e-01 1.710105999999999904e+00 1.966900000000000037e-01 -3.387544000000000111e+00 -6.529300000000000104e-01 -4.032439999999999913e-01 -2.717999999999999930e-03 8.633229999999999515e-01 8.672800000000000509e-01 2.332089999999999996e-01 -4.996039999999999925e-01 7.597500000000000087e-02 7.460670000000000357e-01 8.688559999999999617e-01 -1.237692999999999932e+00 2.967893999999999810e+00 -1.852862999999999927e+00 1.059930000000000039e-01 -1.322850999999999999e+00 -9.917789999999999662e-01 1.717440999999999995e+00
-1.144263000000000030e+00 8.494930000000000536e-01 5.223680000000000545e-01 -1.970760000000000012e-01 2.406949999999999923e-01 8.920000000000000845e-03 -9.518590000000000106e-01 9.618769999999999820e-01 1.769590000000000052e-01 3.039250000000000007e-01 5.238960000000000283e-01 1.627299999999999927e-02 -7.465979999999999839e-01 1.332416999999999963e+00 2.660739999999999772e-01 8.066900000000000459e-02 -1.776601000000000097e+00 4.051210000000000089e-01 1.003373999999999988e+00 -6.167270000000000252e-01 -2.228590000000000015e-01 -1.532715999999999967e+00 1.105380000000000029e+00 -9.149400000000000588e-02 -3.710060000000000024e-01 1.028318999999999983e+00 2.945679999999999965e-01 1.292542000000000080e+00 -4.579010000000000025e-01 -1.569085000000000063e+00 -4.955350000000000033e-01 -1.711967000000000017e+00 2.457749999999999935e-01 5.334079999999999933e-01 -4.658820000000000183e-01 4.223729999999999984e-01 1.184989999999999988e+00 1.332081999999999988e+00 1.949705999999999939e+00 -7.042659999999999476e-01 6.764189999999999925e-01 -1.062219999999999970e-01 -7.076620000000000132e-01 -2.398260000000000114e-01 -8.523399999999999865e-01 -1.157060999999999895e+00 -1.533249999999999891e-01 -2.403668999999999834e+00 1.484097000000000000e+00 -8.040580000000000505e-01 -5.069550000000000445e-01 -6.518969999999999487e-01 -1.169097000000000053e+00 -1.615220000000000100e+00 -7.460189999999999877e-01 -2.316360000000000086e-01 -2.143200000000000105e-01 -3.199489999999999834e-01 -6.161520000000000330e-01 -2.705230000000000135e-01 -3.595380000000000242e-01 4.477740000000000054e-01 -6.814379999999999882e-01 -1.068723000000000090e+00 2.226930000000000021e-01 -6.524980000000000224e-01 -2.714559999999999751e-01 1.535147000000000039e+00 7.539409999999999723e-01 6.844839999999999813e-01 4.802850000000000175e-01 6.509939999999999616e-01 8.150039999999999507e-01 -3.793839999999999990e-01 4.548690000000000233e-01 2.146129999999999982e-01 -5.306669999999999998e-01 3.494740000000000069e-01 2.638800000000000034e-01 1.958887999999999963e+00 -8.682099999999999540e-02 1.373483000000000009e+00 -4.461339999999999750e-01 -7.665359999999999951e-01 -5.379829999999999890e-01 -8.089790000000000036e-01 7.172349999999999559e-01 3.903599999999999848e-01 1.713359999999999883e-01 3.065449000000000090e+00 9.860630000000000228e-01 9.949400000000000466e-01 -1.927345000000000086e+00 -8.233369999999999855e-01 1.791457999999999995e+00 -1.762658999999999976e+00 -1.141707999999999945e+00 -1.617070999999999925e+00 3.487379999999999924e-01 6.126380000000000159e-01 -1.160068000000000099e+00 -8.087830000000000297e-01 1.306783000000000028e+00 -4.728129999999999833e-01 2.948205000000000187e+00 2.004580999999999946e+00 -3.429679999999999951e-01 -1.054294000000000064e+00 -6.062440000000000051e-01 -1.651844000000000090e+00 1.996019999999999905e+00
-4.824649999999999772e-01 -9.871210000000000262e-01 -6.836459999999999759e-01 -3.054209999999999980e-01 -1.486007999999999996e+00 1.527239999999999986e-01 -2.730400000000000049e-01 2.133319999999999939e-01 -9.173000000000000598e-02 -1.816124000000000072e+00 -1.144500000000000031e-02 2.109360000000000124e-01 -4.858310000000000128e-01 9.730419999999999625e-01 1.126203000000000065e+00 -8.982400000000000384e-01 -1.181891999999999943e+00 2.712559999999999971e-01 -1.597898000000000041e+00 3.709950000000000192e-01 -6.796959999999999669e-01 1.218374999999999986e+00 1.157589999999999897e+00 -3.340179999999999816e-01 -5.445820000000000105e-01 2.538409999999999833e-01 1.704368000000000105e+00 1.305155999999999983e+00 1.160459999999999964e-01 -6.104519999999999946e-01 -3.671800000000000064e-02 -7.812339999999999840e-01 -1.729080000000000061e-01 -9.192169999999999508e-01 4.029300000000000104e-01 -5.798539999999999806e-01 -3.354980000000000184e-01 -8.700099999999999500e-01 4.553389999999999938e-01 7.429729999999999945e-01 1.031408000000000103e+00 1.286585000000000090e+00 -5.446429999999999882e-01 -3.620309999999999917e-01 -3.798210000000000197e-01 -1.803236999999999979e+00 -3.471540000000000181e-01 2.522309999999999830e-01 5.683270000000000266e-01 5.248460000000000347e-01 7.568279999999999452e-01 -8.225930000000000186e-01 1.329474000000000045e+00 -1.988371000000000111e+00 5.501000000000000334e-02 -7.962040000000000228e-01 3.008569999999999856e-01 9.444059999999999677e-01 3.419019999999999837e-01 1.266690000000000038e-01 1.778804000000000052e+00 -7.617030000000000189e-01 9.608689999999999731e-01 -3.595240000000000102e-01 7.955710000000000282e-01 -1.258264999999999967e+00 -1.459809999999999997e-01 3.050450000000000106e-01 9.826059999999999794e-01 -8.888999999999999332e-03 1.097942999999999891e+00 -3.615599999999999925e-01 8.024299999999999489e-02 -8.310210000000000097e-01 -9.084649999999999670e-01 1.825749999999999873e-01 3.065120000000000067e-01 -3.094040000000000123e-01 1.368576999999999932e+00 1.811149999999999982e-01 2.965550000000000130e-01 1.212898000000000032e+00 6.265199999999999658e-01 1.202819000000000083e+00 -4.148530000000000273e-01 -5.440730000000000288e-01 -1.637165999999999899e+00 2.180290000000000006e-01 3.395389999999999797e-01 1.360997000000000012e+00 2.134422999999999959e+00 7.329360000000000319e-01 -1.216663999999999968e+00 2.073827999999999783e+00 1.897649999999999892e-01 -1.620978999999999948e+00 6.618169999999999886e-01 -1.072572999999999999e+00 -8.269130000000000091e-01 -1.583310999999999913e+00 -3.095760000000000178e-01 -8.112510000000000554e-01 -1.644609999999999961e-01 8.894199999999999329e-02 4.329479999999999995e-01 -9.898019999999999596e-01 4.695770000000000222e-01 1.980282000000000098e+00 -1.311099999999999939e-02 -1.506825000000000081e+00 6.100900000000000212e-01
-1.239997000000000016e+00 1.035730000000000040e+00 -4.620739999999999847e-01 8.614000000000000129e-03 5.277969999999999606e-01 -6.845520000000000493e-01 5.307020000000000071e-01 8.109309999999999574e-01 1.886099999999999999e-01 1.211122999999999950e+00 -2.217520000000000047e-01 -9.826319999999999499e-01 3.827220000000000066e-01 -8.346299999999999553e-02 -7.247200000000000308e-01 -1.129209999999999936e-01 -1.154049000000000103e+00 -2.805409999999999848e-01 1.833650999999999920e+00 1.830060999999999938e+00 6.164990000000000192e-01 -3.320290000000000186e-01 3.722219999999999973e-01 -2.502710000000000212e-01 1.590892999999999891e+00 2.634123999999999910e+00 7.169229999999999769e-01 7.681879999999999820e-01 -7.007660000000000000e-01 -2.326749999999999929e-01 -5.004399999999999821e-02 7.536770000000000413e-01 -5.036990000000000078e-01 7.944449999999999568e-01 5.378600000000000048e-02 2.372319999999999984e-01 -2.547500000000000112e-02 4.482619999999999938e-01 1.525380000000000069e-01 -1.167745000000000033e+00 -1.206085000000000074e+00 1.689620000000000011e-01 -7.282340000000000479e-01 -1.328761999999999999e+00 -5.731929999999999525e-01 1.799315999999999915e+00 8.053100000000000536e-02 1.189022000000000023e+00 1.675972999999999935e+00 6.620409999999999906e-01 2.103810000000000124e-01 -3.546059999999999768e-01 -6.359639999999999738e-01 3.654999999999999916e-02 -8.176790000000000447e-01 -2.392029999999999990e-01 1.293204000000000020e+00 -1.324386000000000063e+00 2.558130000000000126e-01 6.649220000000000130e-01 -3.863829999999999765e-01 -1.168407999999999891e+00 8.535110000000000197e-01 -3.035070000000000268e-01 -9.360079999999999512e-01 6.539420000000000233e-01 -4.349990000000000245e-01 -1.707484999999999919e+00 1.601949999999999985e+00 -4.044059999999999877e-01 7.950089999999999657e-01 -7.699209999999999665e-01 -1.906687999999999938e+00 -1.011746000000000034e+00 -1.535710000000000131e-01 8.327510000000000190e-01 9.334740000000000260e-01 -7.884830000000000449e-01 -1.261914999999999898e+00 -1.186955999999999900e+00 -2.115654000000000146e+00 2.101926999999999879e+00 6.986149999999999860e-01 -4.428529999999999966e-01 -8.122850000000000348e-01 4.793769999999999976e-01 7.486900000000000499e-02 -1.194628000000000023e+00 -1.401848999999999901e+00 -1.204739000000000004e+00 -2.705420000000000047e-01 5.355499999999999705e-01 2.764491000000000032e+00 8.097450000000000481e-01 -8.169490000000000363e-01 7.688760000000000039e-01 -1.759193999999999924e+00 7.964839999999999698e-01 -4.293569999999999887e-01 -1.490350999999999981e+00 -2.250409999999999910e-01 3.346870000000000123e-01 -1.067431000000000019e+00 9.543760000000000021e-01 -1.145400999999999891e+00 8.426449999999999774e-01 -7.036900000000000099e-02 -1.506845999999999908e+00 2.262750000000000039e+00 -5.630060000000000064e-01 7.240149999999999642e-01
-7.499599999999999322e-02 -2.889369999999999994e-01 -3.879569999999999963e-01 -4.410800000000000137e-02 -2.496329999999999938e-01 4.588969999999999994e-01 -2.235779999999999990e-01 -1.770380000000000009e-01 8.618000000000000660e-03 1.314909999999999968e-01 -2.622559999999999891e-01 1.844099999999999906e-02 -9.629999999999999671e-02 2.809539999999999815e-01 2.054040000000000032e-01 -2.770520000000000205e-01 -1.770089999999999997e-01 6.756399999999999906e-02 -5.165000000000000147e-02 -2.184089999999999920e-01 2.012970000000000037e-01 -3.039549999999999752e-01 8.538700000000000456e-02 7.101599999999999580e-02 2.328699999999999867e-02 -1.515589999999999993e-01 3.827039999999999886e-01 1.419060000000000044e-01 -1.627500000000000058e-01 -2.945139999999999980e-01 9.176299999999999735e-02 -1.458530000000000104e-01 -2.598599999999999868e-02 -6.708000000000000074e-02 -1.339009999999999923e-01 4.766000000000000271e-03 5.790200000000000208e-02 -3.198819999999999997e-01 1.592719999999999969e-01 -3.115599999999999967e-02 7.874399999999999455e-02 -4.764399999999999885e-02 5.255720000000000391e-01 -2.642789999999999861e-01 -3.170300000000000201e-02 -6.532059999999999533e-01 5.498049999999999882e-01 -8.081399999999999695e-02 7.337200000000000666e-02 2.568599999999999772e-01 1.041360000000000063e-01 5.823300000000000004e-02 -2.464890000000000136e-01 -5.550349999999999451e-01 1.694640000000000035e-01 2.154299999999999965e-02 -6.034049999999999692e-01 -1.560529999999999973e-01 -4.596100000000000185e-02 3.974539999999999740e-01 5.357900000000000162e-02 4.879379999999999828e-01 5.003049999999999997e-01 7.884700000000000042e-02 7.802339999999999831e-01 2.246569999999999956e-01 -1.662170000000000036e-01 2.376870000000000094e-01 -3.907450000000000090e-01 -2.031499999999999972e-02 2.773579999999999934e-01 -6.068400000000000183e-02 3.959710000000000174e-01 1.408739999999999992e-01 -8.244300000000000239e-02 -7.796400000000000552e-02 -4.350249999999999950e-01 2.043649999999999911e-01 1.797900000000000054e-01 -2.178420000000000079e-01 -2.729499999999999982e-02 3.820899999999999991e-02 -7.444499999999999729e-02 2.839200000000000057e-02 -3.492000000000000104e-01 -3.190490000000000270e-01 4.972389999999999866e-01 1.616859999999999964e-01 1.056730000000000030e-01 3.545179999999999998e-01 -2.859599999999999920e-01 1.486719999999999986e-01 -2.648889999999999856e-01 -8.016500000000000015e-02 1.002310000000000006e-01 -1.451699999999999935e-01 6.172099999999999809e-02 2.390140000000000042e-01 4.299800000000000150e-02 3.864529999999999910e-01 -7.126000000000000389e-02 -2.069979999999999876e-01 2.382749999999999868e-01 6.880999999999999964e-03 -1.839129999999999932e-01 -1.732720000000000093e-01 1.369430000000000092e-01 -4.061420000000000030e-01 2.647070000000000256e-01 2.678000000000000172e-02 -1.367049999999999932e-01
-1.011454999999999993e+00 8.850850000000000106e-01 1.307079000000000102e+00 -2.263590000000000046e-01 -1.614557999999999938e+00 -1.946558000000000010e+00 2.003147999999999929e+00 7.928169999999999940e-01 -1.048704999999999998e+00 1.221265999999999963e+00 -2.108649999999999969e-01 1.058807000000000054e+00 1.891167000000000042e+00 2.252799999999999941e-02 -9.242999999999999480e-03 2.137566000000000077e+00 3.755834000000000117e+00 1.421869000000000050e+00 1.151005000000000056e+00 8.958000000000000684e-03 9.752990000000000270e-01 1.172479999999999967e+00 -2.947299999999999920e-02 1.013973999999999931e+00 -1.479880000000000084e-01 -2.441303000000000001e+00 -1.962039999999999895e-01 -4.274069999999999814e-01 1.651442999999999994e+00 1.662490999999999941e+00 4.223660000000000192e-01 8.375899999999999457e-01 -8.354449999999999932e-01 1.979646999999999935e+00 -3.084079000000000015e+00 -2.024320000000000008e-01 4.494119999999999782e-01 2.497969999999999913e-01 1.126159999999999939e-01 -1.114983999999999975e+00 -1.336864999999999970e+00 -2.612039999999999917e-01 9.036739999999999773e-01 1.193384999999999918e+00 -4.783990000000000187e-01 -9.197309999999999652e-01 -1.127842000000000011e+00 1.201656000000000057e+00 -8.867899999999999394e-02 -1.754950999999999928e+00 6.539129999999999665e-01 3.052376000000000200e+00 1.937187999999999910e+00 -1.993900000000000117e-01 3.010519999999999863e-01 8.312289999999999957e-01 1.660414999999999974e+00 4.337119999999999864e-01 7.847509999999999764e-01 2.249614999999999920e+00 -8.705249999999999932e-01 8.180319999999999814e-01 -5.518129999999999979e-01 -4.200289999999999857e-01 -1.302775000000000016e+00 -1.855863000000000040e+00 -1.850716000000000028e+00 -1.019808999999999966e+00 -5.552380000000000093e-01 -5.274083000000000077e+00 -2.823923999999999879e+00 -1.972215000000000051e+00 -1.485783999999999994e+00 -6.553299999999999681e-01 -1.289836999999999900e+00 -6.797170000000000156e-01 -5.780300000000000021e-02 -1.235055000000000014e+00 2.671282000000000156e+00 -6.308369999999999811e-01 1.801215000000000011e+00 -2.323929999999999885e-01 -1.638020000000000032e-01 6.572050000000000392e-01 -8.076079999999999925e-01 -3.111419999999999741e-01 2.015937000000000090e+00 -2.181575000000000042e+00 -1.692230000000000123e-01 -1.539717000000000002e+00 1.829663000000000039e+00 4.163879999999999804e-01 -3.843949999999999867e-01 -8.669980000000000464e-01 -3.808239999999999958e-01 1.557005999999999890e+00 -1.014530000000000015e-01 1.339839000000000002e+00 -2.378206000000000042e+00 4.534400000000000097e-01 2.149277000000000104e+00 -6.148240000000000371e-01 9.837430000000000341e-01 1.888528999999999902e+00 -1.347496999999999945e+00 -2.262726999999999933e+00 -2.348761999999999794e+00 -6.559300000000000130e-01 -2.086793000000000120e+00 1.901494999999999935e+00 2.090720000000000078e-01
-2.366976000000000191e+00 -3.236930000000000085e-01 9.010099999999999776e-01 3.915549999999999864e-01 -9.121280000000000499e-01 -1.617390000000000105e+00 6.449230000000000240e-01 6.048750000000000515e-01 -1.143667999999999907e+00 3.784469999999999779e-01 2.414890000000000092e-01 2.968620000000000148e-01 -3.823949999999999849e-01 -3.403680000000000039e-01 -9.046589999999999909e-01 -9.000479999999999592e-01 7.844569999999999599e-01 -1.094916999999999918e+00 -8.320480000000000098e-01 6.767589999999999995e-01 8.771219999999999573e-01 -1.049500000000000086e-02 3.250410000000000244e-01 -3.733800000000000313e-02 5.677839999999999554e-01 6.446990000000000220e-01 -9.509969999999999812e-01 2.091860000000000108e-01 -9.353289999999999660e-01 3.223269999999999746e-01 -3.885799999999999671e-02 1.323685000000000000e+00 -1.447262000000000048e+00 8.697319999999999496e-01 -1.078419999999999934e-01 9.897899999999999754e-02 1.053619000000000083e+00 3.857459999999999778e-01 -6.675529999999999520e-01 -3.424479999999999746e-01 -7.600369999999999626e-01 -4.288540000000000130e-01 3.839020000000000210e-01 1.679299999999999959e-01 7.470219999999999638e-01 1.509227000000000096e+00 -1.362160000000000037e-01 1.077395000000000103e+00 3.907470000000000110e-01 2.221000000000000058e-02 8.613169999999999993e-01 1.813517999999999963e+00 2.776330000000000187e-01 -3.049259000000000164e+00 8.305899999999999395e-02 3.830799999999999761e-01 1.744922000000000084e+00 7.907920000000000504e-01 4.122839999999999838e-01 1.144379999999999953e+00 -4.977559999999999762e-01 -4.524759999999999893e-01 1.222066000000000097e+00 1.124694000000000083e+00 2.126869999999999872e-01 2.436439999999999995e-01 -6.081260000000000554e-01 3.918940000000000201e-01 -6.419270000000000254e-01 -1.209923999999999999e+00 -1.408250000000000057e-01 6.895199999999999940e-02 -6.782479999999999620e-01 -8.870879999999999876e-01 2.533619999999999761e-01 -8.425399999999999556e-01 -8.196780000000000177e-01 -6.097259999999999902e-01 1.153237000000000068e+00 7.539460000000000051e-01 1.190512999999999932e+00 1.385283000000000042e+00 -1.096935999999999911e+00 2.070589999999999931e-01 -7.493419999999999526e-01 2.427699999999999997e-02 -2.812979999999999925e-01 -1.557638000000000078e+00 -9.908899999999999653e-02 -3.656229999999999758e-01 -5.681619999999999449e-01 2.051660000000000039e+00 -6.660190000000000277e-01 -1.474999999999999922e-01 -8.357520000000000504e-01 5.546710000000000251e-01 1.872179999999999955e-01 -1.396854999999999958e+00 2.716660000000000186e-01 5.326899999999999968e-01 -1.991159999999999874e-01 -9.081799999999999595e-02 1.218790000000000012e-01 1.462568000000000090e+00 4.177529999999999855e-01 -4.883100000000000218e-01 -3.541799999999999810e-02 6.390200000000000047e-02 -1.370679999999999898e+00 -1.668072999999999917e+00 1.432382999999999962e+00
1.466989999999999961e-01 -3.476870000000000238e-01 -1.728040000000000131e-01 -2.200090000000000101e-01 2.218749999999999889e-01 1.870249999999999968e-01 3.752699999999999786e-02 4.236199999999999688e-02 -8.807299999999999851e-02 2.935590000000000144e-01 -6.750340000000000229e-01 -2.142429999999999890e-01 1.028030000000000055e-01 2.609699999999999798e-01 3.126760000000000095e-01 -3.211120000000000085e-01 -7.610100000000000198e-02 1.550799999999999922e-02 -1.388689999999999924e-01 -2.401330000000000131e-01 3.043609999999999927e-01 -5.138979999999999659e-01 2.941790000000000238e-01 1.099159999999999998e-01 -3.516210000000000169e-01 -1.011279999999999957e-01 5.390500000000000153e-02 1.955399999999999916e-01 7.960899999999999921e-02 -3.489300000000000040e-02 2.107330000000000036e-01 6.109499999999999653e-02 2.355490000000000084e-01 3.543959999999999888e-01 -2.533750000000000169e-01 -4.264029999999999765e-01 9.016000000000000403e-02 -2.619009999999999949e-01 3.455999999999999871e-03 2.972250000000000170e-01 5.124900000000000289e-02 -1.562900000000000122e-01 7.234030000000000182e-01 -3.142500000000000154e-02 -1.514419999999999933e-01 -5.454189999999999872e-01 9.100099999999999856e-02 1.092420000000000058e-01 4.412380000000000191e-01 8.825900000000000412e-02 6.749099999999999544e-02 1.541520000000000112e-01 8.175499999999999434e-02 1.202880000000000060e-01 -3.795599999999999669e-02 5.498229999999999507e-01 4.645799999999999930e-02 4.238359999999999905e-01 -1.073000000000000065e-01 -3.596099999999999852e-01 -1.241550000000000015e-01 2.438500000000000112e-01 9.450400000000000467e-02 -1.281770000000000131e-01 3.766749999999999821e-01 1.248070000000000013e-01 -7.100700000000000067e-02 -3.055320000000000258e-01 1.281770000000000131e-01 5.022299999999999681e-02 1.869300000000000128e-02 2.466639999999999944e-01 1.355020000000000113e-01 -5.846200000000000008e-02 -7.263999999999999624e-03 7.584899999999999975e-02 8.768800000000000205e-02 -3.100629999999999775e-01 2.889519999999999866e-01 1.674730000000000107e-01 1.365700000000000074e-02 -4.527889999999999970e-01 -1.447229999999999905e-01 4.602720000000000145e-01 -4.921690000000000231e-01 -3.359199999999999686e-02 -5.284929999999999906e-01 -8.649800000000000544e-02 -1.034179999999999960e-01 1.432980000000000087e-01 -3.487580000000000124e-01 2.567329999999999890e-01 -7.482900000000000662e-02 -1.119499999999999940e-01 2.458230000000000137e-01 1.870179999999999898e-01 -1.758049999999999891e-01 1.628249999999999975e-01 -3.077130000000000143e-01 -8.286200000000000510e-02 1.793929999999999969e-01 1.001810000000000062e-01 1.891490000000000116e-01 2.893000000000000172e-03 -3.532959999999999989e-01 -1.432849999999999957e-01 7.547600000000000142e-02 -3.092320000000000069e-01 1.353939999999999866e-01 -8.998890000000000500e-01 4.301960000000000228e-01
4.098099999999999660e-02 6.925800000000000012e-02 4.439300000000000190e-02 -3.201069999999999749e-01 -8.809999999999999776e-02 6.761999999999999955e-02 -2.669170000000000154e-01 -1.559570000000000123e-01 1.761179999999999968e-01 -5.977600000000000274e-02 9.754899999999999682e-02 8.283999999999999697e-02 -7.285600000000000409e-02 2.888800000000000048e-02 -6.952400000000000246e-02 -6.687200000000000089e-02 -7.903799999999999715e-02 -1.002129999999999965e-01 -1.968290000000000040e-01 -8.013699999999999990e-02 -2.329209999999999892e-01 1.095190000000000052e-01 -1.779360000000000108e-01 -1.576049999999999951e-01 -4.915280000000000205e-01 -5.683080000000000354e-01 2.201349999999999973e-01 -2.086530000000000051e-01 -1.041599999999999991e-02 1.168379999999999974e-01 -1.122699999999999948e-01 1.534649999999999903e-01 2.975000000000000214e-03 1.085500000000000007e-02 5.576300000000000007e-02 8.990299999999999681e-02 -4.961579999999999879e-01 -2.054989999999999872e-01 1.210949999999999943e-01 -4.379250000000000087e-01 -2.761609999999999898e-01 1.485252000000000017e+00 3.791400000000000325e-02 -1.343199999999999950e-02 1.762899999999999884e-02 4.642000000000000293e-02 -7.850049999999999528e-01 1.021380000000000066e-01 1.880850000000000022e-01 1.431369999999999865e-01 1.761770000000000003e-01 -3.284340000000000037e-01 1.319730000000000070e-01 8.878999999999999740e-03 3.933999999999999997e-02 9.990799999999999681e-02 -1.971999999999999795e-03 3.209850000000000203e-01 2.773950000000000027e-01 5.805699999999999750e-02 -2.739199999999999968e-02 3.007819999999999938e-01 -1.314359999999999973e-01 2.948430000000000217e-01 1.980439999999999978e-01 7.114800000000000291e-02 4.587019999999999986e-01 2.166339999999999932e-01 -1.484669999999999879e-01 7.060500000000000109e-02 -2.453100000000000072e-02 4.109100000000000252e-02 9.730379999999999585e-01 1.070016999999999996e+00 -1.831617999999999968e+00 -7.908300000000000052e-02 9.495399999999999674e-02 6.121079999999999854e-01 5.025239999999999707e-01 -1.152090000000000058e-01 1.612500000000000044e-02 8.044400000000000162e-02 4.671999999999999938e-03 5.245199999999999863e-02 -5.197199999999999737e-02 1.088049999999999989e-01 -3.693089999999999984e-01 4.234299999999999869e-02 -1.259039999999999881e-01 -7.646400000000000419e-02 5.814600000000000324e-02 1.420240000000000113e-01 1.812400000000000122e-02 -3.578599999999999837e-02 -1.742430000000000090e-01 3.534700000000000342e-02 4.598800000000000110e-02 -9.883400000000000518e-02 -1.464390000000000136e-01 2.907089999999999952e-01 -2.985200000000000006e-02 -1.035330000000000000e-01 1.834179999999999977e-01 6.419000000000000226e-03 -3.144489999999999785e-01 -6.992700000000000304e-02 -1.012789999999999940e-01 -9.099000000000000143e-02 -4.723700000000000121e-01 -8.984599999999999531e-02 1.584959999999999980e-01
-3.415819999999999967e-01 1.050600000000000006e-01 1.390039999999999887e-01 -1.032180000000000042e-01 9.369099999999999651e-02 3.468379999999999797e-01 -2.125150000000000095e-01 2.746540000000000092e-01 3.983149999999999746e-01 1.750929999999999986e-01 2.311920000000000086e-01 -2.822299999999999809e-01 8.596800000000000275e-02 1.524000000000000077e-01 1.218739999999999962e-01 -1.424140000000000128e-01 2.504430000000000267e-01 1.538309999999999955e-01 -2.337940000000000018e-01 3.328690000000000260e-01 -4.204379999999999784e-01 -2.593230000000000257e-01 6.403399999999999370e-02 1.263809999999999933e-01 1.593499999999999917e-01 7.697129999999999805e-01 -4.101799999999999891e-01 1.117930000000000035e-01 -4.507999999999999854e-03 -8.645700000000000607e-02 7.037300000000000499e-02 -6.997900000000000231e-01 3.716570000000000151e-01 -1.429920000000000080e-01 -1.140300000000000064e-01 3.239299999999999818e-02 -8.930399999999999450e-02 1.815479999999999872e-01 -1.173300000000000037e-01 -2.467920000000000114e-01 -1.021709999999999979e-01 3.403999999999999804e-01 -8.423600000000000532e-02 1.455220000000000125e-01 1.087240000000000012e-01 1.907719999999999971e-01 -1.488949999999999996e-01 -1.466840000000000088e-01 3.136010000000000186e-01 -1.512449999999999906e-01 1.876299999999999843e-02 2.198460000000000136e-01 1.533470000000000111e-01 -3.575269999999999837e-01 5.228700000000000014e-02 -3.169730000000000047e-01 -2.141560000000000130e-01 2.875619999999999843e-01 1.401900000000000021e-02 5.658999999999999968e-03 -5.087999999999999641e-03 -3.088339999999999974e-01 2.065349999999999964e-01 8.790199999999999403e-02 -2.860710000000000197e-01 -2.200729999999999908e-01 -4.504199999999999871e-02 2.936400000000000121e-02 6.507400000000000684e-02 3.215100000000000180e-01 -1.822989999999999888e-01 -6.374499999999999611e-02 2.985070000000000223e-01 -4.501410000000000133e-01 2.083849999999999869e-01 -8.381299999999999861e-02 -8.301799999999999458e-02 4.093809999999999949e-01 -1.701259999999999994e-01 -4.568409999999999971e-01 -3.429559999999999831e-01 8.146999999999999728e-03 3.250330000000000163e-01 -1.114440000000000014e-01 -1.883430000000000104e-01 2.335100000000000023e-02 -2.205129999999999868e-01 1.988340000000000107e-01 2.219689999999999996e-01 1.819449999999999956e-01 -1.186510000000000065e-01 1.981249999999999956e-01 4.183230000000000004e-01 1.807809999999999973e-01 2.979959999999999831e-01 -3.399019999999999819e-01 -3.968889999999999918e-01 1.829000000000000070e-01 -2.536410000000000053e-01 -5.957300000000000095e-02 -1.019850000000000062e-01 1.271160000000000068e-01 4.791299999999999726e-02 -1.656080000000000052e-01 4.010190000000000143e-01 2.258139999999999870e-01 -4.007530000000000259e-01 -2.519210000000000060e-01 -1.123579999999999995e-01 -7.406699999999999395e-02 -3.424189999999999734e-01