3.320130726098911822e+01 -7.045374153260002270e-01 -2.098943949136776066e+00 -7.045374153260002270e-01 3.484794115598336361e+01 6.393947048162567981e+00 -2.098943949136776066e+00 6.393947048162567981e+00 4.298857040269466978e+01
4.094616109913273050e+01 -8.870718821267140619e-01 1.816520009616136244e+00 -8.870718821267140619e-01 1.022531672806800707e+01 6.071573507535775960e+00 1.816520009616136244e+00 6.071573507535775960e+00 6.780799249082230062e+01
1.189173787935717570e+02 -4.291456977609323431e+00 7.082959257226209893e+00 -4.291456977609323431e+00 1.448778872384457372e+02 -2.044770117667870313e+00 7.082959257226209893e+00 -2.044770117667870313e+00 1.037944778426914638e+02
1.050859252251732698e+02 -2.183100198818768434e-01 -4.457931065141653271e+00 -2.183100198818768434e-01 9.877955394398927069e+01 1.507527001993911764e+00 -4.457931065141653271e+00 1.507527001993911764e+00 1.193141614364017045e+02
9.563353957112383341e+00 1.681930330052991085e+00 -2.341076508721334992e+00 1.681930330052991085e+00 6.771317191084629705e+00 4.711756327140047773e+00 -2.341076508721334992e+00 4.711756327140047773e+00 1.665345677515960432e+01
3.207153274209917981e+01 9.755586244730216627e-01 3.630744722550588666e+00 9.755586244730216627e-01 4.377675525036064386e+00 9.489858340945916737e+00 3.630744722550588666e+00 9.489858340945916737e+00 3.133884454840469758e+01
1.013872619877911632e+02 2.583896261154370766e+00 5.738716977378846007e-01 2.583896261154370766e+00 9.952023946165205359e+01 2.735327311181768639e+00 5.738716977378846007e-01 2.735327311181768639e+00 8.379308413958978008e+01
7.815752950967775803e+01 1.523524027208518428e+00 -2.150723066279725426e+00 1.523524027208518428e+00 7.929051287315374452e+01 5.398520967326248865e+00 -2.150723066279725426e+00 5.398520967326248865e+00 6.801160846280187400e+01
4.371905854638007582e+01 -4.180098566196732257e+00 3.735217077811218700e-01 -4.180098566196732257e+00 2.353230341620343680e+01 7.272294745951810579e-01 3.735217077811218700e-01 7.272294745951810579e-01 5.666775010302377069e+01
1.091356257591657481e+02 -4.268101538466771316e+00 4.461503121555326246e+00 -4.268101538466771316e+00 1.119604934601316302e+02 6.011502633049566668e+00 4.461503121555326246e+00 6.011502633049566668e+00 9.953333703351937345e+01
1.281133406404879338e+02 1.266114018555034026e-01 -1.994786491553012020e+00 1.266114018555034026e-01 1.161685286296552988e+02 -2.031450679754621125e-01 -1.994786491553012020e+00 -2.031450679754621125e-01 1.089408141682566367e+02
4.774262258539351267e-01 -5.722421307741095697e-01 -2.175711555425331456e-01 -5.722421307741095697e-01 -3.378503671666835118e+01 6.472985423107060932e+00 -2.175711555425331456e-01 6.472985423107060932e+00 3.295138246487719869e+01
-8.162407240443359413e+00 2.376789443801610169e+00 -2.567664864651237444e+00 2.376789443801610169e+00 -1.267635895220961118e+01 3.240572253022696803e+00 -2.567664864651237444e+00 3.240572253022696803e+00 3.634004682736232450e+00
6.321541550375734175e+01 -2.763646587111042496e+00 2.639485182676158948e-01 -2.763646587111042496e+00 6.928947449567431249e+01 -1.349838565310208338e+01 2.639485182676158948e-01 -1.349838565310208338e+01 4.642777513881443241e+01
1.945350100159308582e+01 -1.419388636677203941e+00 -4.820353338504195784e-01 -1.419388636677203941e+00 3.452382921284586104e+01 2.841760144532067045e+00 -4.820353338504195784e-01 2.841760144532067045e+00 -7.202011189783371847e+00
2.628708582739416144e+01 -4.642908251012473064e-01 4.966233059141244577e-01 -4.642908251012473064e-01 1.244370836302882743e+01 2.143662037153917233e+00 4.966233059141244577e-01 2.143662037153917233e+00 -6.233996436876216407e+00
1.176423398681768262e+01 -4.100949308269636440e+00 1.803412418579872556e+00 -4.100949308269636440e+00 1.398065409952706162e+01 3.096652911659699026e+00 1.803412418579872556e+00 3.096652911659699026e+00 2.543368380187295941e+00
9.216119563764313227e+01 -1.858098753035296147e+00 -2.875745940994184568e+00 -1.858098753035296147e+00 1.075403002404116393e+02 -6.320555929081593582e+00 -2.875745940994184568e+00 -6.320555929081593582e+00 6.244798162495856531e+01
1.495872546284638105e+01 -3.660912706426774577e+00 -6.367257556825203224e+00 -3.660912706426774577e+00 4.038068160026328002e+01 2.922953702296044565e+00 -6.367257556825203224e+00 2.922953702296044565e+00 1.829211249914560611e+01
2.526466190096195064e+01 2.057795414298481784e+00 3.154809587516218539e-01 2.057795414298481784e+00 3.444511887937436256e+01 3.977593655414425555e+00 3.154809587516218539e-01 3.977593655414425555e+00 1.887796158575599037e+01
2.370420035106998569e+01 -4.497770709072831608e+00 7.487054733412122687e+00 -4.497770709072831608e+00 4.487561782491958695e+01 -5.304126131093263474e+00 7.487054733412122687e+00 -5.304126131093263474e+00 1.360794808387632315e+01
1.889506182132154422e+01 5.489996653074411093e+00 -6.034571534683710325e+00 5.489996653074411093e+00 3.162884693591804908e+00 7.908722012767182896e+00 -6.034571534683710325e+00 7.908722012767182896e+00 3.319684669100458052e+01
1.299858017098981833e+01 2.757064109828816445e+00 1.979735038620618059e+00 2.757064109828816445e+00 4.051501158023693705e+01 7.093870089856957328e+00 1.979735038620618059e+00 7.093870089856957328e+00 -4.916043169683332437e+00
3.458691083231216989e+00 4.467230377600366786e+00 -3.716606590847637559e+00 4.467230377600366786e+00 2.664442897772055829e+01 -1.314320162720066021e+00 -3.716606590847637559e+00 -1.314320162720066021e+00 -2.449726809585439824e+01
9.185840172633457712e+01 8.563532432296920405e+00 -1.291165878539373679e+01 8.563532432296920405e+00 8.948236187533949249e+01 7.691281919965056169e+00 -1.291165878539373679e+01 7.691281919965056169e+00 1.165644956692716789e+02
8.529535656218776296e+00 -4.330416197540930767e+00 4.186712656978462732e+00 -4.330416197540930767e+00 -4.488304504881477364e+00 2.678547518534089455e+00 4.186712656978462732e+00 2.678547518534089455e+00 3.456884425144372841e+01
9.704193350092285186e+01 6.675264487074526742e-02 -1.611204352305416698e+00 6.675264487074526742e-02 8.436608349573516819e+01 7.856099851356307617e+00 -1.611204352305416698e+00 7.856099851356307617e+00 1.034296924440849068e+02
4.878913654170240477e+01 1.308998249894684163e+00 -1.715762462203396010e+00 1.308998249894684163e+00 5.363211922871001036e+01 7.181676988726248823e-01 -1.715762462203396010e+00 7.181676988726248823e-01 3.234860098549231111e+01
-8.282060345758717190e+00 3.175061675547880213e+00 -4.384121111499556633e+00 3.175061675547880213e+00 1.008327342819217343e+01 5.269730963084234832e-01 -4.384121111499556633e+00 5.269730963084234832e-01 -5.115474513964914038e+00
6.317147699736866429e+01 9.244222652554283659e-01 -4.229913064863880301e+00 9.244222652554283659e-01 6.805206205383554163e+01 -2.039931994073205690e+00 -4.229913064863880301e+00 -2.039931994073205690e+00 7.035105909410600589e+01
9.462557303534849495e+01 5.962184999276849418e+00 -6.682092772832348260e+00 5.962184999276849418e+00 8.624245230802411299e+01 1.453270505722401396e+01 -6.682092772832348260e+00 1.453270505722401396e+01 1.089827152880336314e+02
1.239273826838950328e+02 2.093215189491845596e+00 -6.453674179301007285e+00 2.093215189491845596e+00 1.177808097410773343e+02 -1.911595598656857353e+00 -6.453674179301007285e+00 -1.911595598656857353e+00 1.180097994009639564e+02
1.235292064422248615e+01 -1.198278836330276542e+00 1.376404531484121119e-01 -1.198278836330276542e+00 -1.661999515464815147e+01 5.677058285925589587e+00 1.376404531484121119e-01 5.677058285925589587e+00 3.933318595612518465e+01
4.762871041532455507e+01 -5.264227916641449623e-01 3.720859000551443252e+00 -5.264227916641449623e-01 4.782249575871987446e+01 1.369409645770312822e-01 3.720859000551443252e+00 1.369409645770312822e-01 4.326006318428149910e+01
4.691978167260364785e+01 3.497387248576881436e-01 -1.303601025116771339e+00 3.497387248576881436e-01 5.419483885038055604e+01 1.497862597841655763e+00 -1.303601025116771339e+00 1.497862597841655763e+00 3.119454233725186754e+01
-4.794926646625383704e+00 -3.035518008699267245e+00 3.614852300507505056e+00 -3.035518008699267245e+00 1.934853168181403049e+01 -9.368855270939807411e+00 3.614852300507505056e+00 -9.368855270939807411e+00 -3.303148772768726360e+01
-3.842183029989547194e+00 6.732220191547695354e-01 -1.572109747213247533e-01 6.732220191547695354e-01 -2.082602925194415278e+01 4.989648127732262850e+00 -1.572109747213247533e-01 4.989648127732262850e+00 1.772733634573367922e+01
1.263091539605768503e+02 9.362129583319611648e-01 -6.154964254563879411e-01 9.362129583319611648e-01 1.262097181249169040e+02 4.137404956421519286e-01 -6.154964254563879411e-01 4.137404956421519286e-01 1.223736663753389280e+02
1.040060162148298986e+02 1.373896099627422984e-01 -1.952619941394912739e-01 1.373896099627422984e-01 1.086466504322991824e+02 5.074968257225252799e+00 -1.952619941394912739e-01 5.074968257225252799e+00 1.224828385207568004e+02
7.780140591565682939e+01 -1.397822843495495793e+00 2.595657008012793199e+00 -1.397822843495495793e+00 7.481342183998681605e+01 -4.280762152500448003e+00 2.595657008012793199e+00 -4.280762152500448003e+00 6.753872939021773902e+01
4.414279683095239193e+01 -8.818244518932096820e-01 2.291004927914942257e+00 -8.818244518932096820e-01 1.120762671059557469e+01 4.628246761530816045e+00 2.291004927914942257e+00 4.628246761530816045e+00 6.667981814266354945e+01
4.263098290465659801e+00 3.407158264201870068e+00 -5.071293598644913914e+00 3.407158264201870068e+00 2.274884416292694667e+01 -2.236824654920437805e+00 -5.071293598644913914e+00 -2.236824654920437805e+00 -1.962050724875915864e-01
3.637880938815511200e+01 -3.651259926458002347e+00 3.820668451812873734e+00 -3.651259926458002347e+00 6.616831131724137549e+01 -1.531784853465616258e+01 3.820668451812873734e+00 -1.531784853465616258e+01 1.833463967455474020e+01
3.198409720330781880e+01 -1.890122195654724280e+00 2.401323052635846000e+00 -1.890122195654724280e+00 -5.504413828366835126e+00 1.008025773986200591e+01 2.401323052635846000e+00 1.008025773986200591e+01 4.878991584967215545e+01
8.739538014711920155e+00 -8.170853800363372388e-01 -2.861221146203559718e-01 -8.170853800363372388e-01 3.402217232069595809e+01 -4.953042523240435813e+00 -2.861221146203559718e-01 -4.953042523240435813e+00 1.440499472063710051e+01
5.835427144149942791e+01 -2.853112602947226240e+00 2.276931017812675595e+00 -2.853112602947226240e+00 3.125056236353890782e+01 2.034902057850447310e+00 2.276931017812675595e+00 2.034902057850447310e+00 6.929155381851387574e+01
4.456330512188132076e+01 4.509566346694217742e+00 -3.976286518192516439e+00 4.509566346694217742e+00 4.446728654734482689e+01 4.369610373311430429e+00 -3.976286518192516439e+00 4.369610373311430429e+00 5.893045259641001365e+01
3.092352286165838748e+01 7.788174724379198111e+00 -4.821318450493066621e+00 7.788174724379198111e+00 2.948938864582702379e+01 4.630099625886533232e+00 -4.821318450493066621e+00 4.630099625886533232e+00 1.349085198242619654e+01
1.229618515711721471e+02 2.064712985869398665e+00 -2.961256251009996898e+00 2.064712985869398665e+00 1.204715345990045279e+02 2.704563225570186802e+00 -2.961256251009996898e+00 2.704563225570186802e+00 1.172224521270144493e+02
4.906066802818383366e+01 -6.266252177122832556e+00 6.899284996006559645e+00 -6.266252177122832556e+00 3.445044782575607201e+01 4.115475778345876190e-01 6.899284996006559645e+00 4.115475778345876190e-01 5.236816527947335942e+01
