6.517793633000000142e+00 0.000000000000000000e+00 0.000000000000000000e+00 1.679560578000000026e+00 8.655633532999999602e+00 0.000000000000000000e+00 2.979673700000000022e-02 -7.064087300000000680e-02 9.042165285999999469e+00
6.239805740000000434e+00 0.000000000000000000e+00 0.000000000000000000e+00 1.563531355999999928e+00 8.022961226999999695e+00 0.000000000000000000e+00 -4.138502299999999995e-02 1.015802680000000013e-01 1.020572367099999944e+01
6.181633688999999876e+00 0.000000000000000000e+00 0.000000000000000000e+00 1.491779672000000057e+00 8.005609950000000197e+00 0.000000000000000000e+00 -9.337619299999999622e-02 -4.928515399999999769e-02 1.002757742500000049e+01
6.452869960000000127e+00 0.000000000000000000e+00 0.000000000000000000e+00 1.599860416000000063e+00 8.513332172000000142e+00 0.000000000000000000e+00 -4.813410700000000236e-02 -1.998974200000000132e-02 9.386770179000000880e+00
6.620985515000000099e+00 0.000000000000000000e+00 0.000000000000000000e+00 1.682925763999999935e+00 8.567120315000000375e+00 0.000000000000000000e+00 8.571713999999999375e-03 2.907410100000000150e-02 8.850715276000000742e+00
6.205076155000000426e+00 0.000000000000000000e+00 0.000000000000000000e+00 1.528356516999999970e+00 8.031358465000000280e+00 0.000000000000000000e+00 -4.072252000000000163e-03 1.396744099999999988e-01 1.001420146000000067e+01
6.885156174999999656e+00 0.000000000000000000e+00 0.000000000000000000e+00 1.679649858999999967e+00 8.794296872000000320e+00 0.000000000000000000e+00 1.843363099999999893e-02 5.079672699999999985e-02 8.544395105999999629e+00
6.308829161000000241e+00 0.000000000000000000e+00 0.000000000000000000e+00 1.629052865000000017e+00 8.362267249000000291e+00 0.000000000000000000e+00 7.860169999999999657e-03 -3.203624800000000328e-02 9.518504197000000389e+00
6.573728338999999643e+00 0.000000000000000000e+00 0.000000000000000000e+00 1.633915167999999918e+00 8.493669080000000093e+00 0.000000000000000000e+00 6.735953799999999658e-02 -3.490242500000000081e-02 8.808994518000000440e+00
6.321097935000000057e+00 0.000000000000000000e+00 0.000000000000000000e+00 1.551403647000000108e+00 8.184243142999999776e+00 0.000000000000000000e+00 -1.625132280000000096e-01 2.952616099999999869e-02 9.899652954000000449e+00
6.196735680999999829e+00 0.000000000000000000e+00 0.000000000000000000e+00 1.521411271999999926e+00 8.007288478999999626e+00 0.000000000000000000e+00 -5.956863899999999962e-02 -4.845781999999999867e-03 1.045117718500000059e+01
6.480388053000000426e+00 0.000000000000000000e+00 0.000000000000000000e+00 1.558862713999999983e+00 8.437621974000000691e+00 0.000000000000000000e+00 6.156449700000000275e-02 2.873869600000000107e-02 9.146470917000000256e+00
6.218880673000000137e+00 0.000000000000000000e+00 0.000000000000000000e+00 1.544726201000000021e+00 8.082028120000000371e+00 0.000000000000000000e+00 1.877905399999999989e-02 1.104728920000000031e-01 1.020881672099999982e+01
6.554602543999999753e+00 0.000000000000000000e+00 0.000000000000000000e+00 1.643547437000000055e+00 8.453664144999999408e+00 0.000000000000000000e+00 5.859228600000000037e-02 -2.368801400000000029e-02 8.647883909999999119e+00
6.623432674000000020e+00 0.000000000000000000e+00 0.000000000000000000e+00 1.645483934000000037e+00 8.581823455000000322e+00 0.000000000000000000e+00 3.248220000000000014e-03 6.641727000000000047e-03 8.261182672000000338e+00
6.631314695999999564e+00 0.000000000000000000e+00 0.000000000000000000e+00 1.666070133000000064e+00 8.599052103000000002e+00 0.000000000000000000e+00 -1.516311099999999995e-02 8.521557000000000784e-03 8.840190071000000316e+00
6.352866087999999856e+00 0.000000000000000000e+00 0.000000000000000000e+00 1.551448187999999950e+00 8.308073069000000643e+00 0.000000000000000000e+00 6.937864500000000267e-02 2.214964900000000042e-02 9.898273866000000254e+00
6.212573879999999882e+00 0.000000000000000000e+00 0.000000000000000000e+00 1.525437241000000110e+00 8.148593839000000116e+00 0.000000000000000000e+00 4.152235299999999796e-02 9.797993900000000200e-02 1.016673864400000049e+01
6.677983025999999711e+00 0.000000000000000000e+00 0.000000000000000000e+00 1.561681802999999924e+00 8.527455878999999683e+00 0.000000000000000000e+00 1.297971199999999915e-02 1.021065270000000025e-01 8.251612638999999305e+00
6.874439822000000255e+00 0.000000000000000000e+00 0.000000000000000000e+00 1.668880597000000021e+00 8.740727559999999841e+00 0.000000000000000000e+00 -7.021559999999999607e-03 4.559640300000000063e-02 8.515081626000000625e+00
6.183668224999999907e+00 0.000000000000000000e+00 0.000000000000000000e+00 1.559749048000000027e+00 8.121499162999999299e+00 0.000000000000000000e+00 -2.528022099999999855e-02 4.877906500000000339e-02 1.024882857200000075e+01
6.630082803999999719e+00 0.000000000000000000e+00 0.000000000000000000e+00 1.656934265999999933e+00 8.589503090999999202e+00 0.000000000000000000e+00 3.150982000000000088e-03 8.371842000000000866e-03 8.272286337000000600e+00
6.151722782000000223e+00 0.000000000000000000e+00 0.000000000000000000e+00 1.563949717999999933e+00 8.010220730000000344e+00 0.000000000000000000e+00 -5.873884999999999697e-03 7.712775800000000459e-02 1.015613397199999923e+01
6.224465355000000422e+00 0.000000000000000000e+00 0.000000000000000000e+00 1.547614335000000008e+00 8.227697811000000527e+00 0.000000000000000000e+00 -1.438157500000000061e-02 2.591751000000000211e-03 9.961925626999999395e+00
6.131230421999999791e+00 0.000000000000000000e+00 0.000000000000000000e+00 1.535310229000000026e+00 7.855316625999999580e+00 0.000000000000000000e+00 3.959765700000000138e-02 -5.032291999999999842e-03 1.019416076099999913e+01
6.356040462000000169e+00 0.000000000000000000e+00 0.000000000000000000e+00 1.636338287000000058e+00 8.190850338000000619e+00 0.000000000000000000e+00 -3.679667400000000144e-02 1.775313300000000080e-02 1.039295728399999952e+01
6.372223674999999865e+00 0.000000000000000000e+00 0.000000000000000000e+00 1.651010788000000007e+00 8.203717251000000488e+00 0.000000000000000000e+00 7.230336299999999550e-02 2.750843199999999933e-02 9.571963073999999239e+00
6.742897833999999868e+00 0.000000000000000000e+00 0.000000000000000000e+00 1.676915332000000092e+00 8.771978622000000669e+00 0.000000000000000000e+00 -7.229299999999999919e-04 8.157720000000000249e-03 8.439545278000000650e+00
6.628886116000000328e+00 0.000000000000000000e+00 0.000000000000000000e+00 1.647179728000000010e+00 8.597740259000000052e+00 0.000000000000000000e+00 -4.911132000000000344e-03 -8.763732400000000256e-02 8.282141472999999365e+00
6.688582525000000167e+00 0.000000000000000000e+00 0.000000000000000000e+00 1.651652104999999926e+00 8.667923831999999607e+00 0.000000000000000000e+00 6.089012999999999891e-03 2.491905200000000056e-02 8.354996733000000120e+00
6.189250827000000399e+00 0.000000000000000000e+00 0.000000000000000000e+00 1.518991991999999902e+00 8.096823829999999944e+00 0.000000000000000000e+00 2.205058299999999860e-02 -2.662196799999999933e-02 1.012638986299999999e+01
6.558976999999999613e+00 0.000000000000000000e+00 0.000000000000000000e+00 -4.919227000000000238e+00 8.520364000000000715e+00 0.000000000000000000e+00 0.000000000000000000e+00 0.000000000000000000e+00 8.204978999999999800e+00
6.168723930999999716e+00 0.000000000000000000e+00 0.000000000000000000e+00 1.513885045999999956e+00 8.044032643999999621e+00 0.000000000000000000e+00 -1.055799709999999947e-01 5.264960800000000052e-02 1.057948388099999981e+01
6.214813393000000019e+00 0.000000000000000000e+00 0.000000000000000000e+00 1.563407876999999946e+00 8.046178283999999792e+00 0.000000000000000000e+00 -1.764074800000000123e-02 1.302597169999999971e-01 1.024551622999999978e+01
6.202663382999999975e+00 0.000000000000000000e+00 0.000000000000000000e+00 1.536016014999999957e+00 8.026040976999999188e+00 0.000000000000000000e+00 -8.318925600000000309e-02 6.099371199999999854e-02 1.053467893400000044e+01
6.240560326999999852e+00 0.000000000000000000e+00 0.000000000000000000e+00 1.550978691000000076e+00 8.031837753999999663e+00 0.000000000000000000e+00 5.399753499999999928e-02 1.634758490000000064e-01 1.026437445100000012e+01
6.149967217000000375e+00 0.000000000000000000e+00 0.000000000000000000e+00 1.340395562999999957e+00 8.081107139000000217e+00 0.000000000000000000e+00 -3.469067599999999668e-02 -9.087237300000000628e-02 1.045410737299999937e+01
6.154535274999999750e+00 0.000000000000000000e+00 0.000000000000000000e+00 1.548443497000000058e+00 7.913804660000000268e+00 0.000000000000000000e+00 2.975647799999999940e-02 -3.567744600000000155e-02 1.021653725400000035e+01
6.219449232999999744e+00 0.000000000000000000e+00 0.000000000000000000e+00 1.540707140999999947e+00 8.070933986000000004e+00 0.000000000000000000e+00 -9.965659999999999449e-04 1.017239229999999939e-01 1.019431650599999983e+01
6.282012128999999945e+00 0.000000000000000000e+00 0.000000000000000000e+00 1.579864147999999968e+00 8.318484446999999449e+00 0.000000000000000000e+00 -1.501747399999999941e-02 4.607344999999999670e-03 9.186859813999999957e+00
6.558976999999999613e+00 0.000000000000000000e+00 0.000000000000000000e+00 -4.919227000000000238e+00 8.520364000000000715e+00 0.000000000000000000e+00 0.000000000000000000e+00 0.000000000000000000e+00 8.204978999999999800e+00
6.587197697999999768e+00 0.000000000000000000e+00 0.000000000000000000e+00 1.659185799000000072e+00 8.360263655000000682e+00 0.000000000000000000e+00 1.418800800000000022e-02 5.300784900000000271e-02 8.514381156000000672e+00
6.135953052999999713e+00 0.000000000000000000e+00 0.000000000000000000e+00 1.474315784999999934e+00 7.974862702000000247e+00 0.000000000000000000e+00 -6.314532800000000057e-02 2.151933600000000002e-02 1.090786469500000067e+01
6.360961007000000222e+00 0.000000000000000000e+00 0.000000000000000000e+00 1.596796579000000049e+00 8.405610888000000003e+00 0.000000000000000000e+00 -2.358275500000000038e-02 -2.915711299999999839e-02 9.081902852000000692e+00
6.220465114999999656e+00 0.000000000000000000e+00 0.000000000000000000e+00 1.595581992000000060e+00 8.151454632000000089e+00 0.000000000000000000e+00 1.043635039999999958e-01 7.483896199999999499e-02 9.728261896999999436e+00
6.641985659000000375e+00 0.000000000000000000e+00 0.000000000000000000e+00 1.672914754000000004e+00 8.610567046999999974e+00 0.000000000000000000e+00 -1.402134199999999914e-02 -8.666360900000000256e-02 8.447064304999999607e+00
6.154378801000000010e+00 0.000000000000000000e+00 0.000000000000000000e+00 1.555212473000000095e+00 8.036864589000000336e+00 0.000000000000000000e+00 1.294310100000000026e-02 5.039225299999999796e-02 1.010393009699999922e+01
6.424442189999999719e+00 0.000000000000000000e+00 0.000000000000000000e+00 1.581556439999999952e+00 8.413979366999999598e+00 0.000000000000000000e+00 -9.738501000000000102e-03 -1.962950299999999954e-02 9.286329682999999946e+00
6.558976999999999613e+00 0.000000000000000000e+00 0.000000000000000000e+00 -4.919227000000000238e+00 8.520364000000000715e+00 0.000000000000000000e+00 0.000000000000000000e+00 0.000000000000000000e+00 8.204978999999999800e+00
6.387797142000000150e+00 0.000000000000000000e+00 0.000000000000000000e+00 1.605761828999999974e+00 8.450072190000000205e+00 0.000000000000000000e+00 -2.027052999999999841e-02 1.607495399999999894e-02 9.070743231999999878e+00
