1.645429999999999948e+00 1.099380000000000024e+00 3.530499999999999972e+00 1.392619999999999969e+00 8.213899999999999535e-01 7.644639999999999880e+00 6.698710000000000164e+00 3.834929999999999950e+00 2.995460000000000012e+00 6.519949999999999690e+00 4.046549999999999869e+00 7.874929999999999986e+00 4.966529999999999667e+00 7.079830000000000290e+00 3.009729999999999794e+00 4.869220000000000326e+00 6.684020000000000294e+00 7.857090000000000352e+00 4.954729999999999634e+00 9.625899999999999457e-01 3.336090000000000000e+00 4.966980000000000395e+00 9.891199999999999992e-01 7.998599999999999710e+00 3.557100000000000151e+00 3.739199999999999857e+00 3.228489999999999860e+00 3.281250000000000000e+00 3.684029999999999916e+00 7.575820000000000221e+00 1.862970000000000015e+00 6.758320000000000327e+00 3.235990000000000144e+00 1.561870000000000092e+00 6.726449999999999818e+00 7.502040000000000042e+00 6.715480000000000338e+00 1.773490000000000011e+00 9.643500000000000405e-01 6.454379999999999562e+00 2.079790000000000028e+00 5.672509999999999941e+00 4.786950000000000038e+00 4.728170000000000428e+00 1.015949999999999909e+00 4.778050000000000352e+00 4.785160000000000302e+00 5.270520000000000316e+00 3.291850000000000165e+00 7.871550000000000047e+00 1.148339999999999916e+00 3.413990000000000080e+00 7.633119999999999905e+00 5.416190000000000282e+00 3.243440000000000101e+00 1.888870000000000049e+00 1.110519999999999952e+00 3.339199999999999946e+00 1.879829999999999890e+00 5.573769999999999669e+00 1.727419999999999956e+00 4.776040000000000063e+00 1.113529999999999909e+00 1.773320000000000007e+00 4.773270000000000124e+00 5.337080000000000268e+00 6.803589999999999804e+00 7.751070000000000348e+00 9.875000000000000444e-01 6.643180000000000085e+00 7.788190000000000168e+00 5.462369999999999948e+00 1.850289999999999990e+00 1.061409999999999965e+00 1.518259999999999943e+00 1.527199999999999891e+00 1.077779999999999960e+00 5.721989999999999910e+00 6.608780000000000321e+00 3.795659999999999812e+00 1.192860000000000031e+00 6.485170000000000101e+00 4.110890000000000377e+00 5.758759999999999657e+00 4.967410000000000103e+00 6.935550000000000104e+00 8.799799999999999844e-01 4.890530000000000044e+00 6.663979999999999571e+00 5.267389999999999795e+00 4.864410000000000345e+00 1.177219999999999933e+00 1.161429999999999962e+00 4.953000000000000291e+00 1.004760000000000097e+00 5.502810000000000201e+00 3.326499999999999790e+00 3.598180000000000156e+00 1.493460000000000010e+00 3.353019999999999889e+00 3.733019999999999783e+00 5.652960000000000207e+00 1.836009999999999920e+00 6.591660000000000075e+00 1.392509999999999915e+00 1.665089999999999959e+00 6.777689999999999770e+00 5.463020000000000209e+00 6.451550000000000118e+00 2.205210000000000115e+00 3.738570000000000171e+00 1.400000000000000133e-01 9.377000000000000612e-02 9.026180000000000092e+00 4.925939999999999763e+00 4.963000000000000078e+00 3.064369999999999816e+00 4.708940000000000126e+00 4.725749999999999673e+00 8.185769999999999769e+00 3.278919999999999835e+00 7.921039999999999637e+00 3.335199999999999942e+00 3.318290000000000184e+00 7.659270000000000245e+00 7.409819999999999851e+00 3.329140000000000210e+00 1.941699999999999982e+00 3.476869999999999905e+00 3.217769999999999797e+00 1.903559999999999919e+00 7.720309999999999562e+00 1.774850000000000039e+00 4.747779999999999667e+00 3.322960000000000136e+00 1.773290000000000033e+00 4.692560000000000286e+00 7.886700000000000266e+00 6.753059999999999619e+00 7.705320000000000391e+00 3.225020000000000220e+00 6.589249999999999829e+00 7.722459999999999880e+00 7.691029999999999589e+00 6.305620000000000225e+00 2.244419999999999860e+00 7.758709999999999773e+00
1.619199999999999973e+00 1.063849999999999962e+00 4.237899999999999778e+00 1.544249999999999901e+00 1.446530000000000094e+00 9.650180000000000646e+00 6.344109999999999694e+00 3.590899999999999981e+00 4.108139999999999681e+00 6.171299999999999564e+00 3.851770000000000138e+00 9.433830000000000382e+00 4.784419999999999895e+00 6.194630000000000081e+00 4.068299999999999805e+00 4.534909999999999997e+00 6.462729999999999642e+00 9.608320000000000860e+00 4.634459999999999802e+00 1.018319999999999892e+00 4.134019999999999584e+00 4.593350000000000044e+00 1.274350000000000094e+00 9.375280000000000058e+00 3.254480000000000040e+00 3.557310000000000194e+00 4.019800000000000040e+00 3.145329999999999959e+00 3.844240000000000101e+00 9.187110000000000554e+00 1.767390000000000017e+00 6.247469999999999857e+00 3.759700000000000042e+00 1.656490000000000018e+00 6.649860000000000326e+00 9.327529999999999433e+00 6.186899999999999622e+00 1.934080000000000021e+00 1.836310000000000109e+00 6.173949999999999605e+00 1.869439999999999991e+00 6.838269999999999627e+00 4.613360000000000127e+00 4.501699999999999591e+00 1.758760000000000101e+00 4.729709999999999859e+00 4.453409999999999869e+00 6.717839999999999812e+00 3.052840000000000220e+00 7.377919999999999590e+00 1.664840000000000098e+00 3.118139999999999912e+00 6.991690000000000182e+00 6.570820000000000327e+00 3.001339999999999897e+00 2.177709999999999813e+00 1.785369999999999902e+00 3.110380000000000145e+00 1.822589999999999932e+00 6.793210000000000193e+00 1.540629999999999944e+00 4.542139999999999844e+00 1.579790000000000028e+00 1.483630000000000004e+00 4.484200000000000408e+00 6.496269999999999989e+00 6.253619999999999735e+00 7.271550000000000402e+00 1.610780000000000101e+00 6.322020000000000195e+00 7.331220000000000070e+00 6.341429999999999900e+00 1.490299999999999958e+00 1.359739999999999949e+00 1.164830000000000032e+00 1.579029999999999934e+00 9.763300000000000312e-01 6.091649999999999565e+00 6.113430000000000142e+00 3.733119999999999994e+00 9.932299999999999462e-01 6.182850000000000179e+00 3.754760000000000097e+00 5.876769999999999605e+00 4.495149999999999757e+00 6.226090000000000124e+00 1.186180000000000012e+00 4.729729999999999990e+00 6.245479999999999698e+00 5.977470000000000283e+00 4.632329999999999615e+00 1.086740000000000039e+00 1.390870000000000051e+00 4.589019999999999655e+00 1.096389999999999976e+00 6.025820000000000398e+00 3.144519999999999982e+00 3.766169999999999796e+00 9.286799999999999500e-01 3.131920000000000037e+00 3.525599999999999845e+00 6.207010000000000360e+00 1.609450000000000047e+00 6.278649999999999842e+00 1.463629999999999987e+00 1.652060000000000084e+00 6.146930000000000227e+00 5.619089999999999918e+00 6.205009999999999692e+00 1.839040000000000008e+00 3.632099999999999884e+00 1.601529999999999898e+00 7.470439999999999969e+00 7.362860000000000404e+00 4.736159999999999926e+00 4.372810000000000308e+00 3.556919999999999860e+00 4.724610000000000198e+00 4.482770000000000366e+00 8.631579999999999586e+00 3.161039999999999850e+00 7.294760000000000133e+00 3.501430000000000042e+00 3.131050000000000111e+00 7.552190000000000403e+00 9.515930000000000888e+00 3.127260000000000151e+00 1.806329999999999991e+00 3.640649999999999942e+00 3.023060000000000080e+00 2.011820000000000164e+00 8.699709999999999610e+00 1.673380000000000090e+00 4.330849999999999866e+00 3.335539999999999949e+00 1.487139999999999906e+00 4.767070000000000363e+00 8.609260000000000801e+00 6.342839999999999812e+00 7.142369999999999663e+00 3.518450000000000077e+00 6.067809999999999704e+00 7.520319999999999894e+00 9.733549999999999258e+00 6.177360000000000184e+00 2.001069999999999904e+00 8.703960000000000363e+00
1.450690000000000035e+00 8.701299999999999590e-01 3.446219999999999839e+00 1.286929999999999907e+00 8.598900000000000432e-01 8.431480000000000530e+00 6.115260000000000140e+00 3.523149999999999782e+00 3.276860000000000106e+00 6.073769999999999669e+00 3.746579999999999799e+00 8.315160000000000551e+00 4.616850000000000342e+00 6.184779999999999944e+00 3.403939999999999966e+00 4.613819999999999588e+00 6.340600000000000236e+00 8.393440000000000012e+00 4.586800000000000210e+00 8.116499999999999826e-01 3.496659999999999879e+00 4.527779999999999916e+00 9.707799999999999763e-01 8.300649999999999196e+00 3.007859999999999978e+00 3.471760000000000179e+00 3.263339999999999907e+00 2.943169999999999842e+00 3.621780000000000221e+00 8.335869999999999891e+00 1.446290000000000076e+00 6.170449999999999768e+00 3.585910000000000153e+00 1.525050000000000017e+00 6.451410000000000089e+00 8.256510000000000460e+00 6.067409999999999748e+00 1.849669999999999925e+00 9.284099999999999575e-01 6.071259999999999657e+00 1.671019999999999950e+00 5.933500000000000441e+00 4.672450000000000436e+00 4.539629999999999832e+00 8.822499999999999787e-01 4.646020000000000039e+00 4.578009999999999913e+00 5.793400000000000105e+00 3.095969999999999889e+00 7.151799999999999713e+00 1.006159999999999943e+00 3.061500000000000110e+00 7.276480000000000281e+00 6.045659999999999812e+00 3.055899999999999839e+00 1.829809999999999937e+00 8.221899999999999764e-01 3.020230000000000192e+00 1.919019999999999948e+00 5.696649999999999991e+00 1.615879999999999983e+00 4.563629999999999853e+00 7.300600000000000422e-01 1.459980000000000055e+00 4.270419999999999661e+00 5.724920000000000009e+00 6.170580000000000176e+00 7.180109999999999992e+00 9.945699999999999541e-01 6.177780000000000271e+00 7.145010000000000083e+00 5.981569999999999609e+00 1.431910000000000016e+00 9.050899999999999501e-01 1.353390000000000093e+00 1.608430000000000026e+00 1.168789999999999996e+00 6.442070000000000185e+00 6.173540000000000028e+00 3.650349999999999984e+00 1.469479999999999897e+00 6.122499999999999609e+00 3.521949999999999914e+00 6.483710000000000306e+00 4.675760000000000360e+00 6.279539999999999900e+00 1.544289999999999941e+00 4.521259999999999835e+00 6.242379999999999818e+00 6.603430000000000355e+00 4.506999999999999673e+00 9.189800000000000191e-01 1.503390000000000004e+00 4.340790000000000148e+00 9.596400000000000485e-01 6.306300000000000239e+00 3.061720000000000219e+00 3.690350000000000019e+00 1.365550000000000042e+00 3.013809999999999878e+00 3.740369999999999973e+00 6.387509999999999799e+00 1.616880000000000095e+00 6.277330000000000076e+00 1.636770000000000058e+00 1.617839999999999945e+00 6.024280000000000079e+00 6.156360000000000277e+00 6.144070000000000142e+00 1.794470000000000010e+00 3.713690000000000158e+00 1.434549999999999992e+00 7.968659999999999854e+00 7.402870000000000061e+00 4.529130000000000322e+00 4.383989999999999831e+00 3.891980000000000217e+00 4.579139999999999766e+00 4.560880000000000045e+00 8.988860000000000738e+00 2.992039999999999811e+00 7.074530000000000207e+00 3.926959999999999784e+00 3.037259999999999849e+00 7.053639999999999688e+00 9.203860000000000596e+00 3.054910000000000014e+00 1.770559999999999912e+00 3.877569999999999961e+00 3.036810000000000009e+00 1.852249999999999952e+00 9.008940000000000836e+00 1.422700000000000076e+00 4.367429999999999701e+00 3.806280000000000108e+00 1.509009999999999962e+00 4.577910000000000146e+00 8.921870000000000189e+00 6.092939999999999579e+00 7.091739999999999711e+00 4.064029999999999809e+00 6.008960000000000079e+00 7.192820000000000213e+00 9.153389999999999915e+00 6.036979999999999791e+00 2.060750000000000082e+00 9.091799999999999216e+00
1.563660000000000050e+00 1.035740000000000105e+00 3.586129999999999818e+00 1.470669999999999922e+00 8.165499999999999980e-01 8.312430000000000874e+00 6.422979999999999912e+00 3.904030000000000111e+00 3.503420000000000201e+00 6.461689999999999934e+00 3.915099999999999802e+00 7.960989999999999789e+00 4.813109999999999999e+00 6.736060000000000159e+00 3.307700000000000085e+00 4.815520000000000245e+00 6.640159999999999840e+00 7.924509999999999721e+00 4.814210000000000100e+00 1.008839999999999959e+00 3.515540000000000109e+00 4.765909999999999869e+00 8.960700000000000331e-01 8.427870000000000417e+00 3.139190000000000147e+00 3.723160000000000025e+00 3.688860000000000028e+00 3.183949999999999836e+00 3.699689999999999923e+00 8.228249999999999176e+00 1.586729999999999974e+00 6.685550000000000104e+00 3.283840000000000092e+00 1.591320000000000068e+00 6.920679999999999943e+00 8.151609999999999800e+00 6.498590000000000089e+00 1.979559999999999986e+00 1.232699999999999907e+00 6.298639999999999795e+00 1.851499999999999924e+00 6.088330000000000020e+00 4.829889999999999795e+00 4.775120000000000253e+00 9.722899999999999876e-01 4.814540000000000042e+00 4.762299999999999756e+00 5.657060000000000421e+00 3.138230000000000075e+00 7.558670000000000222e+00 1.121410000000000018e+00 3.281660000000000021e+00 7.671330000000000204e+00 5.635570000000000412e+00 3.254830000000000112e+00 1.830610000000000070e+00 1.375469999999999970e+00 3.145150000000000112e+00 1.860700000000000021e+00 6.073190000000000310e+00 1.707799999999999985e+00 4.793040000000000411e+00 1.146670000000000078e+00 1.619410000000000016e+00 4.734729999999999883e+00 5.828829999999999956e+00 6.514910000000000423e+00 7.524969999999999715e+00 1.103250000000000064e+00 6.513749999999999929e+00 7.677139999999999631e+00 5.553939999999999877e+00 1.659559999999999924e+00 8.296700000000000186e-01 1.330100000000000060e+00 1.592919999999999892e+00 1.217039999999999900e+00 5.530739999999999768e+00 6.485000000000000320e+00 4.127340000000000231e+00 1.228590000000000071e+00 6.400830000000000020e+00 3.751040000000000152e+00 5.879120000000000346e+00 4.792620000000000324e+00 6.757810000000000095e+00 1.519079999999999986e+00 4.824390000000000178e+00 6.735649999999999693e+00 6.074970000000000425e+00 4.863730000000000331e+00 8.836899999999999755e-01 1.071110000000000007e+00 4.651130000000000209e+00 1.098850000000000104e+00 5.332019999999999982e+00 3.237480000000000135e+00 3.648620000000000196e+00 8.780000000000000027e-01 3.215180000000000149e+00 3.711500000000000021e+00 5.564309999999999867e+00 1.601690000000000058e+00 6.670130000000000337e+00 1.588870000000000005e+00 1.610330000000000039e+00 6.698710000000000164e+00 5.624950000000000117e+00 6.424590000000000245e+00 2.017079999999999984e+00 3.155219999999999914e+00 6.279589999999999783e+00 2.805699999999999861e-01 7.207040000000000113e+00 4.818579999999999863e+00 4.841649999999999565e+00 3.611990000000000034e+00 4.756730000000000125e+00 4.726169999999999760e+00 8.297879999999999256e+00 3.342750000000000110e+00 7.742580000000000240e+00 3.707329999999999792e+00 3.253699999999999815e+00 7.563539999999999708e+00 8.591810000000000613e+00 3.195030000000000037e+00 2.012230000000000185e+00 3.177610000000000046e+00 3.163520000000000110e+00 1.810310000000000086e+00 7.872770000000000046e+00 1.593739999999999934e+00 4.772669999999999746e+00 3.566860000000000142e+00 1.652660000000000018e+00 4.875569999999999737e+00 8.061999999999999389e+00 6.442789999999999573e+00 7.567370000000000374e+00 3.628890000000000171e+00 6.374310000000000365e+00 7.441679999999999851e+00 8.610079999999999956e+00 6.536260000000000403e+00 2.192219999999999835e+00 8.723829999999999529e+00
1.736240000000000006e+00 1.131000000000000005e+00 3.182440000000000158e+00 1.655520000000000103e+00 9.994699999999999696e-01 7.664710000000000356e+00 6.729370000000000296e+00 3.937559999999999949e+00 3.106129999999999836e+00 6.591479999999999784e+00 3.888910000000000089e+00 7.658940000000000303e+00 4.907890000000000086e+00 6.698730000000000295e+00 3.351630000000000109e+00 4.993549999999999933e+00 6.843060000000000365e+00 7.821850000000000414e+00 4.952569999999999695e+00 1.082719999999999905e+00 3.267430000000000057e+00 5.093040000000000234e+00 9.234799999999999676e-01 7.891539999999999999e+00 3.473829999999999973e+00 3.874769999999999825e+00 3.458029999999999937e+00 3.310550000000000104e+00 4.040269999999999584e+00 7.828789999999999694e+00 1.716259999999999897e+00 6.824569999999999581e+00 3.240270000000000206e+00 1.772459999999999924e+00 6.897579999999999600e+00 7.641960000000000086e+00 6.691860000000000142e+00 1.981929999999999970e+00 1.199259999999999993e+00 6.593829999999999636e+00 1.879939999999999944e+00 5.502180000000000071e+00 4.926789999999999559e+00 4.784629999999999939e+00 1.040850000000000053e+00 5.098840000000000039e+00 4.869060000000000166e+00 5.579220000000000290e+00 3.343780000000000197e+00 7.594389999999999752e+00 1.119059999999999944e+00 3.248380000000000045e+00 7.733249999999999957e+00 5.244430000000000369e+00 3.452350000000000030e+00 1.973389999999999977e+00 9.667099999999999582e-01 3.259900000000000020e+00 2.055390000000000050e+00 5.830140000000000100e+00 1.738639999999999963e+00 4.892509999999999692e+00 1.035069999999999935e+00 1.541639999999999899e+00 4.835779999999999745e+00 5.515270000000000117e+00 6.581719999999999793e+00 7.660949999999999704e+00 1.216699999999999893e+00 6.658970000000000056e+00 7.721840000000000259e+00 5.401449999999999640e+00 1.649049999999999905e+00 1.045609999999999928e+00 1.118449999999999944e+00 1.698930000000000051e+00 1.259009999999999962e+00 5.306560000000000166e+00 6.650369999999999671e+00 3.815380000000000216e+00 1.189140000000000086e+00 6.632830000000000226e+00 3.844370000000000065e+00 5.802950000000000053e+00 5.052170000000000272e+00 6.598270000000000302e+00 1.180350000000000010e+00 4.949939999999999785e+00 6.824069999999999858e+00 5.508890000000000065e+00 5.010760000000000325e+00 1.052119999999999944e+00 1.054519999999999902e+00 4.791809999999999903e+00 1.212739999999999929e+00 5.270459999999999923e+00 3.366109999999999935e+00 3.777789999999999981e+00 9.370600000000000041e-01 3.362659999999999982e+00 4.024060000000000414e+00 5.485470000000000290e+00 1.656050000000000022e+00 6.669800000000000395e+00 1.338619999999999921e+00 1.661659999999999915e+00 6.559610000000000163e+00 5.095519999999999605e+00 6.739270000000000316e+00 2.018130000000000202e+00 3.360310000000000130e+00 1.749900000000000011e+00 8.299860000000000682e+00 6.375939999999999941e+00 5.024670000000000414e+00 4.823760000000000048e+00 3.338719999999999910e+00 4.955350000000000144e+00 4.865029999999999966e+00 7.880309999999999704e+00 3.386740000000000084e+00 7.753860000000000419e+00 3.261709999999999887e+00 3.446229999999999905e+00 7.787759999999999572e+00 8.086180000000000589e+00 3.312040000000000095e+00 2.020490000000000119e+00 2.963159999999999794e+00 3.341270000000000184e+00 1.993349999999999955e+00 7.752040000000000042e+00 1.736359999999999904e+00 4.827510000000000190e+00 3.368479999999999919e+00 1.632300000000000084e+00 4.925900000000000389e+00 7.804739999999999789e+00 6.559179999999999566e+00 7.691679999999999851e+00 3.304840000000000000e+00 6.661870000000000402e+00 7.635030000000000427e+00 8.100550000000000139e+00 6.662749999999999950e+00 2.039680000000000160e+00 7.866780000000000328e+00
1.571320000000000050e+00 1.091739999999999933e+00 3.982099999999999973e+00 1.521989999999999954e+00 1.095490000000000075e+00 9.090500000000000469e+00 6.228480000000000238e+00 3.664520000000000000e+00 4.130889999999999951e+00 6.201859999999999928e+00 3.830270000000000064e+00 9.098919999999999675e+00 4.639350000000000307e+00 6.353110000000000035e+00 3.642929999999999779e+00 4.626120000000000232e+00 6.556280000000000108e+00 8.541520000000000223e+00 4.660519999999999996e+00 1.106819999999999915e+00 4.003149999999999764e+00 4.686779999999999724e+00 1.063160000000000105e+00 9.076290000000000191e+00 3.100779999999999870e+00 3.666409999999999947e+00 4.076830000000000176e+00 3.099410000000000220e+00 3.793060000000000098e+00 9.062419999999999476e+00 1.536459999999999937e+00 6.314140000000000086e+00 3.753190000000000026e+00 1.537690000000000001e+00 6.547100000000000364e+00 8.709319999999999951e+00 6.212519999999999598e+00 1.912449999999999983e+00 1.565600000000000103e+00 6.216859999999999609e+00 1.780720000000000081e+00 6.650909999999999656e+00 4.646659999999999791e+00 4.511289999999999800e+00 1.577029999999999932e+00 4.663820000000000299e+00 4.608799999999999564e+00 6.577950000000000408e+00 3.085039999999999782e+00 7.219560000000000421e+00 1.215379999999999905e+00 2.996170000000000222e+00 7.275540000000000340e+00 6.003309999999999924e+00 3.124699999999999811e+00 1.904479999999999951e+00 1.479850000000000110e+00 3.109859999999999847e+00 1.978339999999999987e+00 6.611839999999999939e+00 1.542450000000000099e+00 4.522199999999999775e+00 1.585099999999999953e+00 1.552920000000000078e+00 4.543790000000000440e+00 6.573900000000000077e+00 6.163339999999999819e+00 7.221540000000000070e+00 1.192560000000000064e+00 6.287219999999999587e+00 7.301859999999999573e+00 6.025319999999999787e+00 1.542470000000000008e+00 1.051719999999999988e+00 9.826500000000000234e-01 1.645990000000000064e+00 1.212499999999999911e+00 5.842360000000000220e+00 6.183480000000000310e+00 3.694459999999999855e+00 9.648400000000000309e-01 6.192619999999999791e+00 3.736959999999999837e+00 6.011059999999999626e+00 4.629419999999999646e+00 6.377740000000000187e+00 1.757579999999999920e+00 4.649049999999999905e+00 6.490059999999999718e+00 6.629599999999999937e+00 4.684149999999999814e+00 1.069020000000000081e+00 9.871299999999999519e-01 4.592340000000000089e+00 1.243749999999999911e+00 5.858999999999999986e+00 3.111369999999999969e+00 3.715759999999999952e+00 9.287300000000000555e-01 3.128740000000000077e+00 3.754879999999999995e+00 5.983249999999999957e+00 1.512320000000000109e+00 6.379199999999999982e+00 1.666690000000000005e+00 1.516550000000000065e+00 6.097870000000000346e+00 5.661450000000000315e+00 6.213040000000000340e+00 1.916630000000000056e+00 3.428479999999999972e+00 1.548410000000000064e+00 7.798110000000000319e+00 7.278859999999999886e+00 4.650879999999999903e+00 4.475270000000000081e+00 3.540000000000000036e+00 4.638259999999999827e+00 4.653609999999999580e+00 8.493080000000000851e+00 3.133119999999999905e+00 7.290350000000000108e+00 4.060139999999999638e+00 3.134119999999999795e+00 7.241500000000000270e+00 9.354799999999999116e+00 3.110079999999999956e+00 1.916269999999999918e+00 3.352450000000000152e+00 3.110469999999999846e+00 1.952579999999999982e+00 8.550430000000000419e+00 1.552429999999999977e+00 4.413179999999999659e+00 3.423420000000000130e+00 1.545060000000000100e+00 4.680439999999999934e+00 8.489420000000000854e+00 6.164109999999999978e+00 7.305080000000000240e+00 4.034530000000000172e+00 6.136860000000000426e+00 7.224949999999999761e+00 9.341680000000000206e+00 6.193749999999999645e+00 2.032090000000000174e+00 8.584450000000000358e+00
1.690709999999999935e+00 1.092049999999999965e+00 3.184289999999999843e+00 1.768080000000000096e+00 1.115820000000000034e+00 7.367409999999999570e+00 6.870110000000000383e+00 4.063240000000000407e+00 3.210109999999999797e+00 6.954270000000000174e+00 4.279370000000000118e+00 7.366760000000000197e+00 5.145089999999999719e+00 6.986830000000000318e+00 3.113589999999999858e+00 5.218449999999999811e+00 6.912910000000000110e+00 7.312269999999999825e+00 5.187490000000000379e+00 1.088810000000000056e+00 3.260520000000000085e+00 5.139260000000000161e+00 9.684800000000000075e-01 7.235269999999999868e+00 3.498050000000000104e+00 3.824199999999999822e+00 3.047489999999999810e+00 3.226869999999999905e+00 3.820600000000000218e+00 7.295350000000000001e+00 1.778350000000000097e+00 6.856799999999999784e+00 3.118119999999999781e+00 1.687629999999999963e+00 7.153360000000000163e+00 7.458510000000000417e+00 7.000110000000000277e+00 1.994110000000000049e+00 7.653900000000000148e-01 6.989830000000000432e+00 1.872999999999999998e+00 5.411970000000000169e+00 4.969590000000000174e+00 4.891919999999999824e+00 9.303399999999999448e-01 5.100760000000000183e+00 4.877939999999999721e+00 5.359429999999999694e+00 3.420879999999999921e+00 7.861580000000000013e+00 9.311199999999999477e-01 3.458429999999999893e+00 7.864679999999999893e+00 5.301789999999999559e+00 3.442050000000000054e+00 1.841779999999999973e+00 9.247499999999999609e-01 3.452770000000000117e+00 1.922309999999999963e+00 5.437380000000000102e+00 1.603799999999999892e+00 4.789209999999999745e+00 8.843499999999999694e-01 1.667839999999999989e+00 5.053130000000000344e+00 5.307129999999999903e+00 6.789710000000000356e+00 7.864779999999999660e+00 9.197100000000000275e-01 6.919270000000000032e+00 7.919130000000000003e+00 5.260279999999999845e+00 1.713910000000000045e+00 9.805300000000000127e-01 1.197759999999999936e+00 1.796240000000000059e+00 1.187049999999999939e+00 5.156990000000000407e+00 6.788409999999999833e+00 3.936160000000000103e+00 1.377999999999999892e+00 6.922290000000000276e+00 4.068480000000000096e+00 5.197860000000000369e+00 5.032849999999999824e+00 6.869220000000000326e+00 1.154949999999999921e+00 5.117289999999999672e+00 6.953610000000000291e+00 5.119449999999999612e+00 5.252989999999999604e+00 9.942699999999999871e-01 1.162940000000000085e+00 4.955470000000000041e+00 9.287800000000000500e-01 5.189329999999999998e+00 3.273899999999999810e+00 3.784050000000000136e+00 8.430900000000000061e-01 3.355480000000000018e+00 4.020699999999999719e+00 5.365910000000000402e+00 1.632100000000000106e+00 6.965950000000000308e+00 1.064710000000000045e+00 1.640910000000000091e+00 7.055570000000000341e+00 5.171509999999999607e+00 6.730129999999999946e+00 2.198729999999999851e+00 3.523979999999999890e+00 6.823610000000000397e+00 7.211100000000000287e-01 7.172390000000000043e+00 5.053810000000000358e+00 4.876369999999999649e+00 3.366849999999999898e+00 5.130729999999999791e+00 5.019580000000000375e+00 7.405590000000000117e+00 3.408199999999999896e+00 7.890550000000000175e+00 3.234960000000000058e+00 3.532329999999999970e+00 7.711280000000000356e+00 7.588569999999999816e+00 3.458610000000000184e+00 2.031899999999999817e+00 3.111639999999999961e+00 3.522079999999999878e+00 1.792969999999999953e+00 7.351860000000000284e+00 1.855990000000000029e+00 4.942910000000000359e+00 3.113680000000000003e+00 1.722809999999999953e+00 5.154250000000000220e+00 7.505010000000000403e+00 7.037340000000000373e+00 7.846440000000000303e+00 3.161480000000000068e+00 6.790720000000000312e+00 7.904370000000000118e+00 7.456269999999999953e+00 8.864999999999999547e-01 2.656429999999999847e+00 7.737589999999999968e+00
1.534319999999999906e+00 1.049670000000000103e+00 3.345730000000000093e+00 1.438749999999999973e+00 7.551700000000000079e-01 8.326689999999999259e+00 6.450759999999999827e+00 3.830090000000000217e+00 3.227489999999999970e+00 6.350080000000000169e+00 3.712289999999999868e+00 8.006220000000000780e+00 4.870210000000000150e+00 6.461949999999999861e+00 3.438379999999999992e+00 4.722680000000000433e+00 6.517009999999999970e+00 7.983799999999999564e+00 4.736889999999999823e+00 1.050319999999999920e+00 3.277320000000000011e+00 4.772990000000000066e+00 9.419300000000000450e-01 8.143929999999999225e+00 3.247240000000000126e+00 3.865180000000000060e+00 3.235840000000000050e+00 3.196250000000000036e+00 3.628589999999999982e+00 7.993459999999999788e+00 1.577399999999999913e+00 6.573430000000000106e+00 3.347160000000000135e+00 1.611189999999999900e+00 6.636529999999999596e+00 7.939250000000000362e+00 6.380349999999999966e+00 2.073900000000000077e+00 9.869499999999999940e-01 6.298379999999999868e+00 1.870389999999999997e+00 5.514610000000000234e+00 4.793689999999999785e+00 4.714990000000000236e+00 8.293500000000000316e-01 4.882119999999999571e+00 4.644260000000000055e+00 5.784440000000000026e+00 3.169140000000000068e+00 7.507069999999999688e+00 1.124579999999999913e+00 3.067130000000000134e+00 7.465069999999999872e+00 5.731889999999999930e+00 3.193729999999999958e+00 1.875439999999999996e+00 1.033609999999999918e+00 3.193070000000000075e+00 1.978080000000000060e+00 5.383149999999999658e+00 1.730590000000000073e+00 4.751260000000000261e+00 7.925600000000000422e-01 1.617860000000000076e+00 4.632729999999999571e+00 5.593890000000000029e+00 6.215770000000000017e+00 7.547290000000000276e+00 9.435000000000000053e-01 6.437570000000000014e+00 7.544109999999999872e+00 5.708809999999999718e+00 1.499419999999999975e+00 9.150899999999999590e-01 1.286790000000000100e+00 1.627129999999999965e+00 1.145310000000000050e+00 5.504269999999999996e+00 6.384030000000000094e+00 3.967719999999999914e+00 1.376959999999999962e+00 6.349560000000000315e+00 3.676930000000000032e+00 6.071019999999999861e+00 4.747239999999999682e+00 6.477529999999999788e+00 1.442749999999999977e+00 4.729219999999999757e+00 6.629190000000000360e+00 6.108410000000000117e+00 4.799629999999999619e+00 1.099359999999999893e+00 1.324899999999999967e+00 4.712900000000000311e+00 1.061150000000000038e+00 5.628490000000000215e+00 3.240209999999999813e+00 3.667460000000000164e+00 1.333469999999999933e+00 3.256979999999999986e+00 3.777140000000000164e+00 6.100819999999999688e+00 1.600209999999999910e+00 6.558440000000000047e+00 1.524129999999999985e+00 1.613930000000000087e+00 6.379129999999999967e+00 6.104119999999999990e+00 6.262480000000000047e+00 1.937780000000000058e+00 3.442159999999999886e+00 2.594000000000000125e-02 7.119000000000000328e-02 7.218679999999999986e+00 4.871489999999999654e+00 4.576529999999999987e+00 3.867620000000000058e+00 4.837729999999999642e+00 4.690339999999999954e+00 8.423579999999999401e+00 3.208369999999999944e+00 7.559009999999999785e+00 3.707059999999999800e+00 3.291619999999999990e+00 7.422979999999999912e+00 8.651949999999999363e+00 3.228880000000000194e+00 2.014559999999999906e+00 3.461770000000000014e+00 3.220670000000000144e+00 1.749130000000000074e+00 8.531359999999999388e+00 1.720099999999999962e+00 4.804280000000000328e+00 3.729880000000000084e+00 1.730750000000000011e+00 4.523049999999999571e+00 8.582810000000000272e+00 6.310290000000000177e+00 7.576970000000000205e+00 3.658199999999999896e+00 6.144730000000000025e+00 7.417769999999999975e+00 8.585000000000000853e+00 6.274650000000000283e+00 1.960509999999999975e+00 8.734880000000000422e+00