-2.744272331700000223e+02
-2.734133383600000116e+02
-2.742329986299999973e+02
-2.737746627399999966e+02
-2.726481852800000070e+02
-2.734926874700000212e+02
-2.725777809100000013e+02
-2.749336759799999754e+02
-2.758658781799999815e+02
-2.736865725399999860e+02
-2.712637142400000130e+02
-2.730004461500000161e+02
-2.726590250099999935e+02
-2.739414441499999953e+02
-2.765605991400000221e+02
-2.756293374100000051e+02
-2.731348115399999870e+02
-2.747624190700000213e+02
-2.729425830600000040e+02
-2.746467889400000217e+02
-2.741268639400000211e+02
-2.762731372200000237e+02
-2.724541184500000099e+02
-2.731979343900000003e+02
-2.737228625100000272e+02
-2.727938011300000198e+02
-2.724529641400000060e+02
-2.735803499099999954e+02
-2.721656252000000222e+02
-2.728929173700000206e+02
-2.720662163100000157e+02
-2.726650233199999889e+02
-2.724041446499999779e+02
-2.730228914900000063e+02
-2.734130851499999721e+02
-2.726451177499999972e+02
-2.727751119199999721e+02
-2.723992360299999973e+02
-2.730493966600000135e+02
-2.733811741499999926e+02
-2.729352136300000211e+02
-2.751727556000000163e+02
-2.752050323700000263e+02
-2.765423729799999819e+02
-2.755014812000000006e+02
-2.764532349500000237e+02
-2.749671739500000172e+02
-2.729329833400000211e+02
-2.724002847200000019e+02
-2.723311811500000204e+02
