6.136819079000000343e+00 0.000000000000000000e+00 0.000000000000000000e+00 4.631698540999999558e+00 8.032617431000000252e+00 0.000000000000000000e+00 4.590902676999999876e+00 2.708085329000000208e+00 7.520864895999999966e+00
6.077152848999999968e+00 0.000000000000000000e+00 0.000000000000000000e+00 -1.464573665999999941e+00 7.908826922000000259e+00 0.000000000000000000e+00 -1.437582013999999964e+00 2.639208093000000144e+00 7.476201072000000281e+00
6.124140492999999630e+00 0.000000000000000000e+00 0.000000000000000000e+00 4.575872533000000075e+00 8.012006334000000507e+00 0.000000000000000000e+00 4.579550940999999931e+00 2.669053835000000152e+00 7.566901374999999597e+00
6.208219156000000183e+00 0.000000000000000000e+00 0.000000000000000000e+00 -1.725216732999999891e+00 8.125449128999999715e+00 0.000000000000000000e+00 -1.633456470999999910e+00 2.733982503000000008e+00 7.621211691000000066e+00
6.158773889999999973e+00 0.000000000000000000e+00 0.000000000000000000e+00 4.635770296999999651e+00 8.041257392000000337e+00 0.000000000000000000e+00 4.570508542999999868e+00 2.700164016000000000e+00 7.549132938999999709e+00
6.186597598999999725e+00 0.000000000000000000e+00 0.000000000000000000e+00 -1.544115362999999963e+00 7.999661989999999889e+00 0.000000000000000000e+00 -1.544007219999999903e+00 2.710321475999999841e+00 7.600874970999999647e+00
6.133386004000000113e+00 0.000000000000000000e+00 0.000000000000000000e+00 -1.604442517000000068e+00 8.058009358999999705e+00 0.000000000000000000e+00 -1.551332197000000024e+00 2.688193462000000089e+00 7.614760790000000057e+00
6.118606394999999587e+00 0.000000000000000000e+00 0.000000000000000000e+00 -1.557805565000000003e+00 8.085070273999999557e+00 0.000000000000000000e+00 -1.579799084000000020e+00 2.766975753000000093e+00 7.585511385000000217e+00
6.153433729999999713e+00 0.000000000000000000e+00 0.000000000000000000e+00 4.645366980999999562e+00 8.034110052999999141e+00 0.000000000000000000e+00 4.645293524999999590e+00 2.700242688999999974e+00 7.520063945000000416e+00
6.197995404000000264e+00 0.000000000000000000e+00 0.000000000000000000e+00 4.587312108999999971e+00 8.097231427000000537e+00 0.000000000000000000e+00 4.693702061999999842e+00 2.694486139999999974e+00 7.536740877999999810e+00
6.185243899999999684e+00 0.000000000000000000e+00 0.000000000000000000e+00 4.614271002999999816e+00 8.041639209999999593e+00 0.000000000000000000e+00 4.615038518999999617e+00 2.689726637000000142e+00 7.585582245000000334e+00
6.162081122000000022e+00 0.000000000000000000e+00 0.000000000000000000e+00 -1.520418056000000018e+00 7.956007037000000004e+00 0.000000000000000000e+00 -1.433443765000000036e+00 2.588982136999999906e+00 7.529326086000000195e+00
6.177979343999999706e+00 0.000000000000000000e+00 0.000000000000000000e+00 4.629495569000000366e+00 8.055058327999999435e+00 0.000000000000000000e+00 4.620525358000000082e+00 2.731993646999999914e+00 7.569964646999999935e+00
6.165999164999999671e+00 0.000000000000000000e+00 0.000000000000000000e+00 4.558275661999999784e+00 7.971918296000000126e+00 0.000000000000000000e+00 4.663868918000000363e+00 2.594720076000000208e+00 7.558882210000000157e+00
6.190749777999999814e+00 0.000000000000000000e+00 0.000000000000000000e+00 4.631237428000000378e+00 8.097851305000000721e+00 0.000000000000000000e+00 4.618809485999999964e+00 2.663048448000000068e+00 7.580914324000000093e+00
6.174473599999999784e+00 0.000000000000000000e+00 0.000000000000000000e+00 4.610964120000000221e+00 8.035389045000000507e+00 0.000000000000000000e+00 4.654407724000000357e+00 2.677078107999999901e+00 7.584842925000000236e+00
6.189500790000000308e+00 0.000000000000000000e+00 0.000000000000000000e+00 4.690057734999999894e+00 8.087029252000000668e+00 0.000000000000000000e+00 4.619202660000000016e+00 2.750153887000000186e+00 7.601978799000000286e+00
6.184893501000000349e+00 0.000000000000000000e+00 0.000000000000000000e+00 -1.624252371000000084e+00 8.031954145000000267e+00 0.000000000000000000e+00 -1.532313317000000064e+00 2.697306128000000136e+00 7.526211822999999690e+00
6.212199428999999995e+00 0.000000000000000000e+00 0.000000000000000000e+00 -1.495253484000000022e+00 8.179706188000000822e+00 0.000000000000000000e+00 -1.430967059999999957e+00 2.796736697000000049e+00 7.637244335000000106e+00
6.203180549999999904e+00 0.000000000000000000e+00 0.000000000000000000e+00 4.621677174000000221e+00 8.035460873999999976e+00 0.000000000000000000e+00 4.627324194999999918e+00 2.689022443999999901e+00 7.581367618999999891e+00
6.192530662000000241e+00 0.000000000000000000e+00 0.000000000000000000e+00 4.618453128999999713e+00 8.109347307000000171e+00 0.000000000000000000e+00 4.670671098999999771e+00 2.722762517000000049e+00 7.624511165999999562e+00
6.159702817000000330e+00 0.000000000000000000e+00 0.000000000000000000e+00 4.616940157000000156e+00 8.054925644000000773e+00 0.000000000000000000e+00 4.622968256000000054e+00 2.731743654999999826e+00 7.560079616000000335e+00
6.161812583999999759e+00 0.000000000000000000e+00 0.000000000000000000e+00 4.536281684999999619e+00 8.053494381000000146e+00 0.000000000000000000e+00 4.609876640000000414e+00 2.730865221000000176e+00 7.614537022000000377e+00
6.152721461999999697e+00 0.000000000000000000e+00 0.000000000000000000e+00 4.647065568999999563e+00 8.026763590999999920e+00 0.000000000000000000e+00 4.601382109000000220e+00 2.656684777999999802e+00 7.563688513999999863e+00
6.163775968000000383e+00 0.000000000000000000e+00 0.000000000000000000e+00 4.591836530000000138e+00 8.018490246000000710e+00 0.000000000000000000e+00 4.617382135999999804e+00 2.689840262999999787e+00 7.544282382999999648e+00
6.196547228000000018e+00 0.000000000000000000e+00 0.000000000000000000e+00 4.620990028999999666e+00 8.106834596000000559e+00 0.000000000000000000e+00 4.681803623999999608e+00 2.665143456000000022e+00 7.536240779999999972e+00
6.162482587000000400e+00 0.000000000000000000e+00 0.000000000000000000e+00 4.610807687000000321e+00 8.022037346999999485e+00 0.000000000000000000e+00 4.600900560000000361e+00 2.732467164000000004e+00 7.559071080999999914e+00
6.293776228999999667e+00 0.000000000000000000e+00 0.000000000000000000e+00 -1.430726117999999936e+00 8.101264327000000876e+00 0.000000000000000000e+00 -1.419970708999999998e+00 2.625630136999999920e+00 7.689440796999999606e+00
6.157326654000000232e+00 0.000000000000000000e+00 0.000000000000000000e+00 4.604360125000000359e+00 7.998092150999999816e+00 0.000000000000000000e+00 4.620856577999999715e+00 2.656640224000000217e+00 7.577529662999999971e+00
6.141556784999999685e+00 0.000000000000000000e+00 0.000000000000000000e+00 -1.573459735999999998e+00 7.957626168000000000e+00 0.000000000000000000e+00 -1.475089206999999902e+00 2.600855557000000040e+00 7.529088097999999896e+00
6.188725349000000264e+00 0.000000000000000000e+00 0.000000000000000000e+00 4.558719071999999706e+00 8.029102315999999462e+00 0.000000000000000000e+00 4.640459552000000265e+00 2.726862150000000096e+00 7.560933956999999594e+00
6.171882991999999568e+00 0.000000000000000000e+00 0.000000000000000000e+00 -1.495523973000000062e+00 8.086312069999999963e+00 0.000000000000000000e+00 -1.474351036000000059e+00 2.800117442999999984e+00 7.638559061999999678e+00
6.236933020999999577e+00 0.000000000000000000e+00 0.000000000000000000e+00 -1.463398176000000106e+00 8.112493193000000602e+00 0.000000000000000000e+00 -1.447320294999999923e+00 2.831829093000000075e+00 7.623382033000000391e+00
6.149975472999999582e+00 0.000000000000000000e+00 0.000000000000000000e+00 4.612152435999999689e+00 7.995456571000000068e+00 0.000000000000000000e+00 4.611199486000000292e+00 2.662561343000000136e+00 7.531387574000000029e+00
6.151556277000000073e+00 0.000000000000000000e+00 0.000000000000000000e+00 4.614008931999999952e+00 7.994853567999999910e+00 0.000000000000000000e+00 4.614120050999999556e+00 2.664016129999999816e+00 7.538844313000000241e+00
6.169396895000000214e+00 0.000000000000000000e+00 0.000000000000000000e+00 -1.523241202999999988e+00 7.994886272999999655e+00 0.000000000000000000e+00 -1.605724297000000078e+00 2.761059561000000162e+00 7.515105103999999869e+00
6.199202099999999938e+00 0.000000000000000000e+00 0.000000000000000000e+00 4.676788318999999916e+00 8.056669477999999884e+00 0.000000000000000000e+00 4.699964197999999982e+00 2.752019226999999901e+00 7.603891165000000285e+00
6.176844921999999904e+00 0.000000000000000000e+00 0.000000000000000000e+00 -1.565063380000000004e+00 8.000993176999999790e+00 0.000000000000000000e+00 -1.507742565999999895e+00 2.617187023000000057e+00 7.548526730999999934e+00
6.241938329999999979e+00 0.000000000000000000e+00 0.000000000000000000e+00 -1.505854642999999937e+00 8.033192367999999917e+00 0.000000000000000000e+00 -1.522514917000000079e+00 2.707044924999999935e+00 7.519336871000000144e+00
6.171167269999999760e+00 0.000000000000000000e+00 0.000000000000000000e+00 4.641272404000000407e+00 8.043570061000000493e+00 0.000000000000000000e+00 4.647444389000000342e+00 2.700445778000000185e+00 7.578936404000000238e+00
6.153752351999999703e+00 0.000000000000000000e+00 0.000000000000000000e+00 4.610293449000000265e+00 8.007537459999999996e+00 0.000000000000000000e+00 4.607268987000000315e+00 2.714590449000000127e+00 7.542947780000000435e+00
6.138668532999999705e+00 0.000000000000000000e+00 0.000000000000000000e+00 4.630919841999999953e+00 7.993788628999999979e+00 0.000000000000000000e+00 4.599965703999999711e+00 2.673917152000000019e+00 7.543873168000000184e+00
6.109119372000000325e+00 0.000000000000000000e+00 0.000000000000000000e+00 4.601811546000000419e+00 8.026645100999999727e+00 0.000000000000000000e+00 4.593958135000000276e+00 2.657760784000000154e+00 7.584102561999999992e+00
6.148990312999999652e+00 0.000000000000000000e+00 0.000000000000000000e+00 4.639374983999999813e+00 8.003748028000000403e+00 0.000000000000000000e+00 4.615541268000000308e+00 2.674871324999999800e+00 7.553949139000000201e+00
6.161014645999999928e+00 0.000000000000000000e+00 0.000000000000000000e+00 4.562419161000000223e+00 8.056797326999999953e+00 0.000000000000000000e+00 4.682806864999999874e+00 2.741562146000000144e+00 7.576853078000000075e+00
6.090051584000000240e+00 0.000000000000000000e+00 0.000000000000000000e+00 -1.574708895999999969e+00 7.969768485000000346e+00 0.000000000000000000e+00 -1.585336105000000106e+00 2.678403107999999921e+00 7.542510966000000039e+00
6.096178562000000412e+00 0.000000000000000000e+00 0.000000000000000000e+00 4.555635944999999687e+00 7.838589486000000051e+00 0.000000000000000000e+00 4.547621872999999759e+00 2.624697878000000095e+00 7.420586648999999646e+00
6.163861225999999860e+00 0.000000000000000000e+00 0.000000000000000000e+00 4.599219369000000057e+00 8.073634046000000453e+00 0.000000000000000000e+00 4.645935163999999951e+00 2.727295209000000220e+00 7.577871959000000324e+00
6.167825457000000178e+00 0.000000000000000000e+00 0.000000000000000000e+00 4.653803547999999957e+00 8.025097299000000461e+00 0.000000000000000000e+00 4.651406962000000256e+00 2.713071160000000148e+00 7.553920427000000437e+00
6.128326427000000187e+00 0.000000000000000000e+00 0.000000000000000000e+00 4.566076941999999583e+00 8.006196801999999835e+00 0.000000000000000000e+00 4.658459882999999913e+00 2.633817706999999952e+00 7.526806187000000037e+00
