-2.912276457099999902e+02
-2.882581506800000284e+02
-2.908121816299999978e+02
-2.885907338200000254e+02
-2.918282613299999753e+02
-2.885766076300000123e+02
-2.869796701500000040e+02
-2.897678431200000091e+02
-2.932700894899999753e+02
-2.882884287800000038e+02
-2.921918358600000261e+02
-2.880082677500000159e+02
-2.907000268900000037e+02
-2.902331864799999721e+02
-2.903034705399999780e+02
-2.914987327399999799e+02
-2.888092553899999757e+02
-2.900225757599999952e+02
-2.875889813800000070e+02
-2.914859961299999895e+02
-2.880529819100000282e+02
-2.908926451300000053e+02
-2.903368431000000101e+02
-2.904837808099999847e+02
-2.904488551499999858e+02
-2.869713392099999965e+02
-2.899237533599999779e+02
-2.879232859599999870e+02
-2.911412314199999969e+02
-2.894111377500000231e+02
-2.895204794900000138e+02
-2.872568518499999755e+02
-2.885099027100000058e+02
-2.915909182600000236e+02
-2.918037780799999723e+02
-2.896268683800000190e+02
-2.895183157499999993e+02
-2.878238579200000231e+02
-2.883602193300000067e+02
-2.907045026000000121e+02
-2.919629211700000155e+02
-2.917560592699999802e+02
-2.899451141100000200e+02
-2.915260345799999868e+02
-2.904632636900000193e+02
-2.910315827900000158e+02
-2.900706829200000243e+02
-2.889203878999999802e+02
-2.899274058899999886e+02
-2.902219096599999943e+02
