8.567641771999999989e+00 0.000000000000000000e+00 0.000000000000000000e+00 4.290492570999999700e+00 7.387927838000000413e+00 0.000000000000000000e+00 4.275501174999999598e+00 2.440771912999999849e+00 6.978618533999999762e+00
8.588567876999999129e+00 0.000000000000000000e+00 0.000000000000000000e+00 4.280838131000000324e+00 7.458146634000000219e+00 0.000000000000000000e+00 4.301619321000000440e+00 2.509044690000000077e+00 7.008488128999999844e+00
8.555115053999999830e+00 0.000000000000000000e+00 0.000000000000000000e+00 4.231796896999999724e+00 7.403950401000000348e+00 0.000000000000000000e+00 4.332038585000000275e+00 2.465370737999999839e+00 6.985785004000000242e+00
8.512970081000000633e+00 0.000000000000000000e+00 0.000000000000000000e+00 4.255629405999999726e+00 7.361132704000000082e+00 0.000000000000000000e+00 4.255144489000000085e+00 2.445182678000000109e+00 6.943266572999999831e+00
8.505725661999999687e+00 0.000000000000000000e+00 0.000000000000000000e+00 4.239341368999999915e+00 7.410698821000000436e+00 0.000000000000000000e+00 4.226569276000000208e+00 2.511428310999999969e+00 6.979196196000000185e+00
8.644519709000000773e+00 0.000000000000000000e+00 0.000000000000000000e+00 4.305606432000000261e+00 7.514543230000000129e+00 0.000000000000000000e+00 4.363754754000000347e+00 2.488546460999999876e+00 7.053104356999999602e+00
8.753915557999999209e+00 0.000000000000000000e+00 0.000000000000000000e+00 4.321139588000000309e+00 7.564967210999999914e+00 0.000000000000000000e+00 4.360773116999999921e+00 2.485704850999999937e+00 7.113707871999999988e+00
8.600585303000000792e+00 0.000000000000000000e+00 0.000000000000000000e+00 4.294513144999999810e+00 7.538236913999999622e+00 0.000000000000000000e+00 4.347735660999999752e+00 2.554544841999999871e+00 7.040511816000000422e+00
8.473351933000000002e+00 0.000000000000000000e+00 0.000000000000000000e+00 4.244647405000000262e+00 7.370692455999999559e+00 0.000000000000000000e+00 4.248281802000000162e+00 2.430650362000000175e+00 6.924989317999999727e+00
8.526516585999999620e+00 0.000000000000000000e+00 0.000000000000000000e+00 4.263485089999999644e+00 7.385013634999999965e+00 0.000000000000000000e+00 4.263033867999999948e+00 2.462054833999999914e+00 6.962230843000000391e+00
8.638196957999999981e+00 0.000000000000000000e+00 0.000000000000000000e+00 4.405433470000000185e+00 7.355301648000000192e+00 0.000000000000000000e+00 4.300150541999999909e+00 2.408114692999999917e+00 7.014396301999999750e+00
8.645777417999999770e+00 0.000000000000000000e+00 0.000000000000000000e+00 4.305710149000000264e+00 7.500276298000000175e+00 0.000000000000000000e+00 4.369531932000000118e+00 2.521833258000000022e+00 7.066617353999999906e+00
8.615912457000000302e+00 0.000000000000000000e+00 0.000000000000000000e+00 4.262112485000000284e+00 7.492153952999999866e+00 0.000000000000000000e+00 4.354946950000000427e+00 2.532665028999999901e+00 7.056069457000000433e+00
8.611188327000000697e+00 0.000000000000000000e+00 0.000000000000000000e+00 4.307018710000000361e+00 7.449887595999999945e+00 0.000000000000000000e+00 4.293825031999999986e+00 2.516799268999999839e+00 7.002999696999999912e+00
8.612919645999999929e+00 0.000000000000000000e+00 0.000000000000000000e+00 4.285876927000000336e+00 7.477950419999999987e+00 0.000000000000000000e+00 4.325126207000000278e+00 2.510376152000000083e+00 7.012838496999999727e+00
8.525676574000000230e+00 0.000000000000000000e+00 0.000000000000000000e+00 4.225862689999999589e+00 7.539619236000000058e+00 0.000000000000000000e+00 4.205571501999999739e+00 2.667497833000000096e+00 7.077516533999999915e+00
8.611849222000000026e+00 0.000000000000000000e+00 0.000000000000000000e+00 4.328742619999999874e+00 7.455033851999999683e+00 0.000000000000000000e+00 4.322809069999999920e+00 2.459091909000000076e+00 7.012289500999999703e+00
8.506003420000000759e+00 0.000000000000000000e+00 0.000000000000000000e+00 4.255014497000000340e+00 7.412151106999999683e+00 0.000000000000000000e+00 4.234599154999999726e+00 2.520851251999999931e+00 6.968940747999999630e+00
8.509106235000000851e+00 0.000000000000000000e+00 0.000000000000000000e+00 4.224814085000000219e+00 7.399628131000000053e+00 0.000000000000000000e+00 4.262775594999999917e+00 2.452885773000000214e+00 6.954318023999999987e+00
8.591505673000000343e+00 0.000000000000000000e+00 0.000000000000000000e+00 4.296491669999999985e+00 7.427679303999999760e+00 0.000000000000000000e+00 4.286321425999999768e+00 2.460951904999999940e+00 7.006435998999999804e+00
8.565717513999999255e+00 0.000000000000000000e+00 0.000000000000000000e+00 4.271560498000000372e+00 7.404053299000000088e+00 0.000000000000000000e+00 4.301482597999999768e+00 2.489854593000000005e+00 6.988984703999999937e+00
8.579409543000000582e+00 0.000000000000000000e+00 0.000000000000000000e+00 4.367383935000000328e+00 7.422588518000000413e+00 0.000000000000000000e+00 4.283483919000000029e+00 2.379101353999999890e+00 7.009665845999999867e+00
8.615403630999999507e+00 0.000000000000000000e+00 0.000000000000000000e+00 4.307340006999999638e+00 7.396083527000000046e+00 0.000000000000000000e+00 4.282225916999999882e+00 2.477033435000000061e+00 6.990959613000000239e+00
8.589561991000000063e+00 0.000000000000000000e+00 0.000000000000000000e+00 4.309763773000000242e+00 7.451988273000000440e+00 0.000000000000000000e+00 4.259969644999999971e+00 2.493017699999999781e+00 7.027320616999999991e+00
8.540023206000000755e+00 0.000000000000000000e+00 0.000000000000000000e+00 4.281411815000000232e+00 7.373278367000000166e+00 0.000000000000000000e+00 4.299218978999999941e+00 2.404761355999999850e+00 6.959145479000000023e+00
8.544112079999999665e+00 0.000000000000000000e+00 0.000000000000000000e+00 4.273814392000000240e+00 7.407468976999999732e+00 0.000000000000000000e+00 4.283558948999999672e+00 2.484308519999999909e+00 6.968168749000000162e+00
8.488725262999999188e+00 0.000000000000000000e+00 0.000000000000000000e+00 4.280623229999999779e+00 7.411236871999999920e+00 0.000000000000000000e+00 4.280703916000000220e+00 2.448133335000000077e+00 6.982616529999999599e+00
8.505079701999999742e+00 0.000000000000000000e+00 0.000000000000000000e+00 4.240351182000000385e+00 7.391359040000000213e+00 0.000000000000000000e+00 4.252843116000000201e+00 2.458343544999999963e+00 6.968336511999999594e+00
8.599714279000000516e+00 0.000000000000000000e+00 0.000000000000000000e+00 4.316080622000000311e+00 7.484193871000000442e+00 0.000000000000000000e+00 4.309383482000000321e+00 2.550829296999999940e+00 7.009690836999999952e+00
8.512877390999999960e+00 0.000000000000000000e+00 0.000000000000000000e+00 4.256508806000000256e+00 7.376863348999999737e+00 0.000000000000000000e+00 4.233277849000000259e+00 2.447275300999999903e+00 6.968710161999999819e+00
8.596648468999999793e+00 0.000000000000000000e+00 0.000000000000000000e+00 4.289670629999999818e+00 7.418509529999999685e+00 0.000000000000000000e+00 4.300929678000000145e+00 2.462268695000000118e+00 7.008197883000000239e+00
8.604145587999999734e+00 0.000000000000000000e+00 0.000000000000000000e+00 4.269885118000000368e+00 7.440371954999999815e+00 0.000000000000000000e+00 4.271041558000000293e+00 2.535956749999999982e+00 6.992929713999999741e+00
8.572410872000000737e+00 0.000000000000000000e+00 0.000000000000000000e+00 4.298038997999999999e+00 7.493060041999999754e+00 0.000000000000000000e+00 4.312508378999999614e+00 2.551726889000000220e+00 6.994289752000000249e+00
8.516428726999999199e+00 0.000000000000000000e+00 0.000000000000000000e+00 4.149979914000000214e+00 7.391477594999999567e+00 0.000000000000000000e+00 4.320428858999999733e+00 2.512624034999999978e+00 6.946646845000000070e+00
8.540267736000000554e+00 0.000000000000000000e+00 0.000000000000000000e+00 4.273803793999999989e+00 7.397312151999999585e+00 0.000000000000000000e+00 4.270660550999999749e+00 2.469918074999999824e+00 6.967510829000000072e+00
8.457085041999999220e+00 0.000000000000000000e+00 0.000000000000000000e+00 4.256818769999999752e+00 7.329090285999999566e+00 0.000000000000000000e+00 4.215608320000000298e+00 2.430770461999999910e+00 6.907306853999999774e+00
8.684871751999999390e+00 0.000000000000000000e+00 0.000000000000000000e+00 4.270273613999999718e+00 7.477585905999999838e+00 0.000000000000000000e+00 4.312243323999999767e+00 2.463838052999999917e+00 7.042879360999999783e+00
8.603417563000000712e+00 0.000000000000000000e+00 0.000000000000000000e+00 4.308457470999999650e+00 7.443197139999999656e+00 0.000000000000000000e+00 4.320542331000000402e+00 2.493490260000000180e+00 7.048289989999999783e+00
8.554643594999999934e+00 0.000000000000000000e+00 0.000000000000000000e+00 4.243520584999999734e+00 7.417317597000000262e+00 0.000000000000000000e+00 4.273768257999999598e+00 2.449603543999999911e+00 6.964303872000000339e+00
8.634460671999999448e+00 0.000000000000000000e+00 0.000000000000000000e+00 4.416954454999999946e+00 7.455808499999999839e+00 0.000000000000000000e+00 4.258846866999999925e+00 2.468489116000000205e+00 7.049340149999999916e+00
8.586798315999999431e+00 0.000000000000000000e+00 0.000000000000000000e+00 4.263340808999999787e+00 7.408966958999999797e+00 0.000000000000000000e+00 4.253486506999999861e+00 2.467486941000000211e+00 6.978449412999999879e+00
8.608701529999999380e+00 0.000000000000000000e+00 0.000000000000000000e+00 4.302566792000000362e+00 7.406484088000000021e+00 0.000000000000000000e+00 4.339091593000000024e+00 2.447008283999999811e+00 7.023661360000000187e+00
8.532273082999999758e+00 0.000000000000000000e+00 0.000000000000000000e+00 4.258208065999999903e+00 7.391920840000000048e+00 0.000000000000000000e+00 4.272115686000000245e+00 2.459499163999999904e+00 6.965794865000000335e+00
8.536695856999999776e+00 0.000000000000000000e+00 0.000000000000000000e+00 4.240580362000000214e+00 7.423180129000000349e+00 0.000000000000000000e+00 4.273714667000000134e+00 2.541089389000000143e+00 6.972643598000000331e+00
8.623142415000000227e+00 0.000000000000000000e+00 0.000000000000000000e+00 4.304328231000000393e+00 7.482421912000000397e+00 0.000000000000000000e+00 4.313779353000000150e+00 2.509234578000000049e+00 7.046899949000000163e+00
8.560756872000000683e+00 0.000000000000000000e+00 0.000000000000000000e+00 4.235985581999999638e+00 7.445389961000000056e+00 0.000000000000000000e+00 4.332251462000000330e+00 2.510347760999999789e+00 7.021640578000000410e+00
8.583071615999999793e+00 0.000000000000000000e+00 0.000000000000000000e+00 4.278537320999999949e+00 7.412216965999999907e+00 0.000000000000000000e+00 4.259801272999999888e+00 2.546751931000000191e+00 6.965931690999999759e+00
8.615555884000000830e+00 0.000000000000000000e+00 0.000000000000000000e+00 4.253662154999999778e+00 7.435182195000000327e+00 0.000000000000000000e+00 4.295449819999999974e+00 2.484513949000000110e+00 6.995159006999999818e+00
8.642343865000000847e+00 0.000000000000000000e+00 0.000000000000000000e+00 4.328955440999999738e+00 7.466015686999999623e+00 0.000000000000000000e+00 4.311386466000000084e+00 2.480147093999999885e+00 7.045793502000000430e+00
8.525515264999999232e+00 0.000000000000000000e+00 0.000000000000000000e+00 4.292805238999999773e+00 7.385219497999999660e+00 0.000000000000000000e+00 4.260353742999999582e+00 2.412156974000000176e+00 6.949554441000000082e+00
