6.322115957000000286e+00 0.000000000000000000e+00 0.000000000000000000e+00 1.775811851999999913e+00 8.250083593999999465e+00 0.000000000000000000e+00 -3.239996099999999796e-02 -8.693009000000000153e-02 9.955061812000000288e+00
6.239125578000000338e+00 0.000000000000000000e+00 0.000000000000000000e+00 1.524692173000000039e+00 8.069518537000000435e+00 0.000000000000000000e+00 -1.667839000000000127e-02 4.134380599999999684e-02 1.007148135299999936e+01
6.617295979999999744e+00 0.000000000000000000e+00 0.000000000000000000e+00 1.788868254999999907e+00 8.611507211999999356e+00 0.000000000000000000e+00 1.498792800000000036e-01 2.297106640000000088e-01 8.736836185999999671e+00
6.172100021000000325e+00 0.000000000000000000e+00 0.000000000000000000e+00 1.347868840000000068e+00 8.276262569000000013e+00 0.000000000000000000e+00 -9.982275599999999860e-02 2.144724900000000156e-02 1.041627726699999990e+01
6.267937036000000184e+00 0.000000000000000000e+00 0.000000000000000000e+00 1.522230304000000034e+00 8.193223723999999208e+00 0.000000000000000000e+00 -8.095491500000000229e-02 7.479460000000000275e-02 1.004273366199999984e+01
6.752575515000000195e+00 0.000000000000000000e+00 0.000000000000000000e+00 1.706745087999999910e+00 8.566721855999999136e+00 0.000000000000000000e+00 4.408407999999999771e-02 1.119376470000000012e-01 8.452428919999999124e+00
6.727097869999999702e+00 0.000000000000000000e+00 0.000000000000000000e+00 1.705581787999999932e+00 8.542518084999999317e+00 0.000000000000000000e+00 -1.721548200000000070e-02 2.052377400000000018e-01 8.579254009999999653e+00
6.677115374999999631e+00 0.000000000000000000e+00 0.000000000000000000e+00 1.688891796000000056e+00 8.415036835000000437e+00 0.000000000000000000e+00 3.848022400000000037e-02 1.408236619999999883e-01 8.296810884999999303e+00
6.711775201000000024e+00 0.000000000000000000e+00 0.000000000000000000e+00 -4.895419518999999831e+00 8.753439218000000466e+00 0.000000000000000000e+00 -3.404271300000000222e-02 -1.859924579999999994e-01 7.974494968000000128e+00
6.234776734999999626e+00 0.000000000000000000e+00 0.000000000000000000e+00 1.499244868999999980e+00 8.280331988000000365e+00 0.000000000000000000e+00 -2.245986800000000089e-02 -3.804244700000000007e-02 1.017158957600000058e+01
6.424630046999999955e+00 0.000000000000000000e+00 0.000000000000000000e+00 1.637918578999999930e+00 8.358291674000000171e+00 0.000000000000000000e+00 3.789309800000000006e-02 8.053337200000000584e-02 8.844956430999999952e+00
6.478248354999999847e+00 0.000000000000000000e+00 0.000000000000000000e+00 1.895470803000000037e+00 8.886089368000000377e+00 0.000000000000000000e+00 -5.554903099999999871e-02 5.619051299999999749e-02 8.785221458000000538e+00
6.857959133999999679e+00 0.000000000000000000e+00 0.000000000000000000e+00 1.733034621999999914e+00 8.768681811000000437e+00 0.000000000000000000e+00 1.329738420000000088e-01 2.124109989999999892e-01 8.717692641999999381e+00
6.270459941000000370e+00 0.000000000000000000e+00 0.000000000000000000e+00 1.582568672000000065e+00 8.160399036999999467e+00 0.000000000000000000e+00 -1.244044100000000069e-01 -1.447397460000000025e-01 1.017719845100000065e+01
6.722042373999999931e+00 0.000000000000000000e+00 0.000000000000000000e+00 1.642625234999999906e+00 8.562675393999999329e+00 0.000000000000000000e+00 1.351604680000000058e-01 3.308952549999999992e-01 8.476950349999999190e+00
6.726121882000000163e+00 0.000000000000000000e+00 0.000000000000000000e+00 1.718444230000000017e+00 8.700929356999999698e+00 0.000000000000000000e+00 -4.236732299999999840e-02 2.728143279999999948e-01 8.664103343000000734e+00
6.629980511000000298e+00 0.000000000000000000e+00 0.000000000000000000e+00 1.596666901000000083e+00 8.560903935000000686e+00 0.000000000000000000e+00 -1.398651899999999934e-02 -1.043216400000000071e-02 8.360997543999999948e+00
6.209286577000000307e+00 0.000000000000000000e+00 0.000000000000000000e+00 1.582216325000000090e+00 8.125463828999999194e+00 0.000000000000000000e+00 -3.156827999999999718e-02 -1.375814399999999993e-02 1.008170533600000063e+01
6.644715846999999620e+00 0.000000000000000000e+00 0.000000000000000000e+00 1.654869378999999974e+00 8.351968762000000268e+00 0.000000000000000000e+00 4.854701899999999681e-02 6.668214399999999875e-02 8.243866642000000411e+00
6.670230724999999694e+00 0.000000000000000000e+00 0.000000000000000000e+00 1.728431636000000049e+00 8.539321282999999596e+00 0.000000000000000000e+00 4.928949800000000103e-02 1.645546320000000062e-01 8.461177231000000631e+00
6.309145449999999933e+00 0.000000000000000000e+00 0.000000000000000000e+00 1.520249388999999951e+00 8.071199572999999461e+00 0.000000000000000000e+00 -1.178234699999999996e-01 9.215344400000000102e-02 1.026401210699999922e+01
6.323593497000000063e+00 0.000000000000000000e+00 0.000000000000000000e+00 1.451879106000000030e+00 8.206186223999999640e+00 0.000000000000000000e+00 1.051966099999999960e-02 1.635174410000000134e-01 1.051983429400000070e+01
6.433704700999999915e+00 0.000000000000000000e+00 0.000000000000000000e+00 1.821117915000000087e+00 8.451626640000000634e+00 0.000000000000000000e+00 -5.549565999999999701e-03 1.626309989999999983e-01 8.752145293999999964e+00
6.592646895999999757e+00 0.000000000000000000e+00 0.000000000000000000e+00 1.625040620000000047e+00 8.581316050999999945e+00 0.000000000000000000e+00 7.373291499999999610e-02 8.175881299999999963e-02 8.476767867999999595e+00
6.411900252999999772e+00 0.000000000000000000e+00 0.000000000000000000e+00 1.803261438999999910e+00 8.552749185999999781e+00 0.000000000000000000e+00 1.176660969999999973e-01 2.545392459999999968e-01 9.523689807000000229e+00
6.587685070000000032e+00 0.000000000000000000e+00 0.000000000000000000e+00 1.620596069000000083e+00 8.361156255999999232e+00 0.000000000000000000e+00 7.632647400000000526e-02 2.268106840000000124e-01 8.443506836999999265e+00
6.284239201000000108e+00 0.000000000000000000e+00 0.000000000000000000e+00 1.543181432999999991e+00 8.231481125000000176e+00 0.000000000000000000e+00 2.017441919999999889e-01 -1.391032209999999991e-01 1.070508878599999925e+01
6.597840311999999763e+00 0.000000000000000000e+00 0.000000000000000000e+00 1.581641212000000074e+00 8.656765766999999556e+00 0.000000000000000000e+00 -5.059796899999999958e-02 -7.636296200000000645e-02 8.417202220000000068e+00
6.742413287999999838e+00 0.000000000000000000e+00 0.000000000000000000e+00 1.689600239000000004e+00 8.615541645000000415e+00 0.000000000000000000e+00 8.069310300000000213e-02 5.437454500000000329e-02 8.488942119000000730e+00
6.373615421000000225e+00 0.000000000000000000e+00 0.000000000000000000e+00 1.645900388999999908e+00 8.537505461000000295e+00 0.000000000000000000e+00 5.712747299999999806e-02 1.288655710000000121e-01 9.067478295000000799e+00
6.069468601999999713e+00 0.000000000000000000e+00 0.000000000000000000e+00 1.529403948999999985e+00 7.992554715999999893e+00 0.000000000000000000e+00 -3.796047200000000205e-02 8.148984099999999342e-02 1.057454604199999970e+01
6.391151955999999856e+00 0.000000000000000000e+00 0.000000000000000000e+00 1.451110464000000100e+00 8.621435596999999618e+00 0.000000000000000000e+00 3.032896900000000076e-02 6.071613199999999905e-02 8.645840064999999797e+00
6.148016120000000306e+00 0.000000000000000000e+00 0.000000000000000000e+00 1.460641802000000045e+00 7.993405716999999910e+00 0.000000000000000000e+00 7.869169500000000594e-02 -5.474867399999999718e-02 1.080351085699999913e+01
6.795030136000000276e+00 0.000000000000000000e+00 0.000000000000000000e+00 1.714409939000000049e+00 8.421919904999999318e+00 0.000000000000000000e+00 1.127862389999999965e-01 2.460621359999999869e-01 8.239678285000000102e+00
6.232544110000000082e+00 0.000000000000000000e+00 0.000000000000000000e+00 1.610566769000000065e+00 8.156345435000000421e+00 0.000000000000000000e+00 -3.176443000000000148e-03 7.875907199999999941e-02 1.035599069699999930e+01
6.540829330000000219e+00 0.000000000000000000e+00 0.000000000000000000e+00 1.685846444000000055e+00 8.321329808999999855e+00 0.000000000000000000e+00 3.145264100000000340e-02 9.043562099999999382e-02 8.880956096000000244e+00
6.545997690000000091e+00 0.000000000000000000e+00 0.000000000000000000e+00 1.878215699999999933e+00 8.545538787999999997e+00 0.000000000000000000e+00 -1.322493110000000083e-01 1.471287209999999901e-01 9.423903277000000855e+00
6.569011778000000135e+00 0.000000000000000000e+00 0.000000000000000000e+00 1.662891418000000066e+00 8.601256748999999147e+00 0.000000000000000000e+00 4.340171599999999991e-02 1.943791079999999949e-01 8.513611169000000700e+00
6.420411735000000064e+00 0.000000000000000000e+00 0.000000000000000000e+00 1.510651154999999912e+00 8.502849103000000852e+00 0.000000000000000000e+00 -1.404272109999999962e-01 1.239485859999999995e-01 9.139392216999999263e+00
6.269182396999999796e+00 0.000000000000000000e+00 0.000000000000000000e+00 1.633845049999999910e+00 8.298732410999999587e+00 0.000000000000000000e+00 -2.041690840000000007e-01 1.712280000000000052e-02 1.027589275499999921e+01
6.503604063000000046e+00 0.000000000000000000e+00 0.000000000000000000e+00 1.543567987000000086e+00 8.398330180000000311e+00 0.000000000000000000e+00 5.031912699999999822e-02 8.150693400000000310e-02 8.481595284999999151e+00
6.187232573000000180e+00 0.000000000000000000e+00 0.000000000000000000e+00 1.543004594999999979e+00 8.040774705000000466e+00 0.000000000000000000e+00 -5.275949999999999520e-04 1.636044670000000034e-01 1.050266731900000039e+01
6.265681938000000173e+00 0.000000000000000000e+00 0.000000000000000000e+00 1.475443622000000010e+00 8.224884383999999216e+00 0.000000000000000000e+00 -1.626487329999999898e-01 6.756812900000000455e-02 9.801061059000000242e+00
6.244554779999999639e+00 0.000000000000000000e+00 0.000000000000000000e+00 1.537177760000000060e+00 8.099839855000000810e+00 0.000000000000000000e+00 2.908081840000000251e-01 -1.028113570000000060e-01 1.097369984300000034e+01
6.300278561999999916e+00 0.000000000000000000e+00 0.000000000000000000e+00 1.537442103999999921e+00 8.307421008000000384e+00 0.000000000000000000e+00 -5.552574999999999698e-03 9.571304199999999818e-02 9.915213534999999467e+00
6.610257578999999772e+00 0.000000000000000000e+00 0.000000000000000000e+00 -4.878659078000000093e+00 8.462736287000000246e+00 0.000000000000000000e+00 1.503367620000000127e-01 4.592824599999999896e-02 8.334955086000000790e+00
6.641325918999999800e+00 0.000000000000000000e+00 0.000000000000000000e+00 1.778289731999999956e+00 8.487379496000000856e+00 0.000000000000000000e+00 4.738069200000000203e-02 3.238266430000000251e-01 8.584256416000000556e+00
6.214822292000000026e+00 0.000000000000000000e+00 0.000000000000000000e+00 1.571389004000000034e+00 8.114427299000000815e+00 0.000000000000000000e+00 -8.945738599999999985e-02 2.532817199999999949e-02 1.005036054600000028e+01
6.558799896000000018e+00 0.000000000000000000e+00 0.000000000000000000e+00 -5.143471946000000017e+00 8.389013835000000086e+00 0.000000000000000000e+00 -6.664764000000000105e-03 1.428696269999999990e-01 8.029981411999999708e+00
6.165219188000000017e+00 0.000000000000000000e+00 0.000000000000000000e+00 1.527353670000000108e+00 8.082456632999999613e+00 0.000000000000000000e+00 5.230253700000000311e-02 -9.351409600000000488e-02 1.061052615400000043e+01
