-1.251077999999999912e+00 3.830020000000000091e-01 2.007839999999999903e-01 2.887600000000000167e-01 -1.298120000000000107e-01 1.589677999999999924e+00 -3.740959999999999841e-01 1.132095999999999991e+00 -3.641969999999999930e-01 -3.093380000000000019e-01 -6.971559999999999979e-01 -5.448340000000000405e-01 1.214248999999999912e+00 6.183389999999999720e-01 7.143270000000000453e-01 1.804599999999999954e-02 7.701719999999999677e-01 6.906560000000000477e-01 -1.019160999999999984e+00 1.681709999999999872e-01 1.999900000000000011e-01 1.036502999999999952e+00 -4.144899999999999973e-02 -1.123512000000000066e+00 -2.744090000000000140e-01 -1.124192999999999998e+00 -1.939980000000000038e+00 3.531369999999999787e-01 -6.285799999999999721e-02 -2.634886999999999979e+00 4.089280000000000137e-01 -4.643829999999999902e-01 1.457659000000000038e+00 1.726642999999999928e+00 -7.057320000000000260e-01 2.008080999999999783e+00 3.714620000000000144e-01 6.736879999999999535e-01 -3.165009999999999768e-01 -6.759180000000000188e-01 -4.949549999999999783e-01 -1.155672000000000033e+00 -1.939249999999999863e-01 3.233199999999999963e-02 -4.697669999999999901e-01 -2.632165999999999784e+00 -4.006689999999999974e-01 -1.776570000000000094e-01 -3.136240000000000139e-01 -1.987960000000000005e-01 1.461989999999999901e+00 5.154419999999999558e-01 8.231289999999999996e-01 1.340410000000000101e+00 4.639469999999999983e-01 -1.065215999999999941e+00 6.569409999999999972e-01 4.017999999999999905e-01 2.318699999999999928e-01 -1.437326000000000104e+00 9.991240000000000121e-01 -7.105970000000000342e-01 1.710490000000000066e-01 3.588930000000000176e-01 -4.540999999999999898e-03 -1.216104999999999992e+00 5.116469999999999629e-01 9.523979999999999668e-01 7.955330000000000457e-01 3.422780000000000267e-01 -4.858040000000000136e-01 -1.636319999999999997e-01 2.562810999999999950e+00 6.581310000000000215e-01 1.312780000000000058e-01 -7.988220000000000320e-01 -6.180470000000000130e-01 -1.382567000000000101e+00 -5.800149999999999473e-01 5.486769999999999703e-01 1.928968000000000016e+00 9.742290000000000116e-01 7.350820000000000132e-01 3.517779999999999796e-01 -1.340232000000000090e+00 -7.885140000000000482e-01 -9.535869999999999624e-01 -1.117791999999999897e+00 1.003903999999999908e+00 -9.447700000000000542e-02 1.761189999999999978e-01 1.238999999999999962e-01 3.857650000000000245e-01 1.439999999999999891e-01 -3.379130000000000189e-01 -1.006920000000000037e+00 2.209949999999999970e-01 3.944179999999999908e-01 1.161620000000000097e+00 1.088748999999999967e+00 -1.461893000000000109e+00 1.716674999999999951e+00 1.048848999999999920e+00 1.288040000000000018e-01 -9.650050000000000017e-01 -5.848879999999999635e-01 -3.687380000000000102e-01 -2.728349999999999942e-01 -3.375299999999999967e-01 -1.313249999999999973e-01 -9.392660000000000453e-01 6.308359999999999523e-01 -4.007800000000000251e-01 3.207019999999999871e-01 1.469613000000000058e+00 -1.850630999999999915e+00 -1.348310000000000064e-01 -1.726436999999999999e+00 2.541519999999999890e-01 1.476359999999999895e-01 -5.204440000000000177e-01 -4.012910000000000088e-01 -5.921880000000000477e-01 -3.721320000000000183e-01 1.507469999999999921e-01 7.960559999999999858e-01 -9.903560000000000141e-01 8.603730000000000544e-01 1.339970000000000050e-01 -4.553519999999999790e-01 2.875599999999999823e-01 4.849970000000000114e-01 1.843132999999999910e+00 6.203689999999999483e-01 -1.285514000000000046e+00 -1.083574999999999955e+00 -4.279459999999999931e-01 -4.723910000000000053e-01 -5.151700000000000168e-01 -2.914430000000000076e-01 6.373100000000000431e-01 -2.907420000000000004e-01 2.190549999999999997e-01 3.339690000000000158e-01 9.287250000000000227e-01 7.888110000000000399e-01 -1.645749999999999991e-01 -6.998929999999999874e-01 -1.813589999999999924e-01 -3.390340000000000020e-01 1.180090000000000028e-01 3.257729999999999793e-01 1.607200000000000017e-01 -1.057760000000000034e+00 1.399519999999999931e-01 3.415340000000000042e-01 -7.020720000000000294e-01 8.211389999999999523e-01 -1.728429999999999966e-01
4.526310000000000056e-01 8.088250000000000162e-01 8.530889999999999862e-01 -2.484639999999999904e-01 2.279819999999999902e-01 -3.509600000000000219e-02 1.342000000000000094e-03 -1.270493000000000094e+00 -1.707859999999999934e-01 -1.569020000000000137e-01 -3.122159999999999935e-01 2.971980000000000177e-01 -1.018095999999999890e+00 1.203896999999999995e+00 2.690759999999999819e-01 -1.082753000000000076e+00 4.212049999999999961e-01 -2.640410000000000257e-01 -4.895639999999999992e-01 -1.542734999999999967e+00 4.986199999999999660e-02 -9.171040000000000303e-01 2.748249999999999860e-01 1.097051999999999916e+00 -2.378059999999999896e-01 1.061269999999999991e-01 1.176692000000000071e+00 6.474560000000000315e-01 5.833949999999999969e-01 1.352862000000000009e+00 -4.853089999999999904e-01 -9.705700000000000438e-02 -1.298888000000000043e+00 -1.892639999999999878e-01 -5.344219999999999526e-01 -2.982099999999999751e-01 -8.447740000000000249e-01 2.222830000000000084e-01 1.350320000000000131e-01 1.092756999999999978e+00 -1.588329000000000102e+00 -3.245730000000000004e-01 3.918380000000000196e-01 6.095490000000000075e-01 -4.155899999999999872e-02 2.366908000000000012e+00 1.909309999999999896e-01 7.096299999999999830e-02 -1.321541000000000077e+00 -7.116409999999999680e-01 -1.925629999999999953e+00 3.516699999999999826e-01 -8.534000000000000474e-01 -2.258539999999999992e-01 -1.010550999999999977e+00 5.940600000000000047e-02 -9.899769999999999959e-01 -3.255359999999999920e-01 -6.369110000000000049e-01 1.352678999999999965e+00 -1.477370000000000072e-01 -5.616609999999999658e-01 -1.734179999999999888e-01 7.449000000000000066e-02 -9.372800000000000575e-02 7.395549999999999624e-01 1.465359999999999996e-01 5.532449999999999868e-01 -1.151715999999999962e+00 -4.743430000000000146e-01 9.951090000000000213e-01 6.817779999999999951e-01 -2.113928000000000029e+00 -1.027358999999999911e+00 -7.859399999999999720e-02 1.181928000000000090e+00 -1.512100000000000076e-02 1.586014000000000035e+00 4.238919999999999910e-01 -1.273799999999999932e-01 -2.994129999999999847e-01 -3.854079999999999728e-01 3.738650000000000029e-01 -1.057981999999999978e+00 3.186700000000000088e-01 1.482048000000000032e+00 1.870446999999999971e+00 4.991450000000000053e-01 4.200490000000000057e-01 -6.967459999999999765e-01 -6.688099999999999601e-02 1.277182999999999957e+00 3.191530000000000200e-01 6.514550000000000063e-01 3.657779999999999920e-01 -3.583419999999999939e-01 1.006409999999999944e-01 -2.387019999999999975e-01 -6.147930000000000339e-01 -4.749510000000000121e-01 -6.020180000000000531e-01 -4.130019999999999802e-01 1.422739999999999894e+00 -3.937100000000000322e-02 1.505312999999999901e+00 -6.359829999999999650e-01 1.958439999999999959e+00 9.511720000000000175e-01 4.935709999999999820e-01 -9.380760000000000209e-01 -7.761169999999999458e-01 -2.459089999999999887e-01 1.164803999999999951e+00 -3.982020000000000004e-01 1.534050000000000136e-01 1.073117000000000099e+00 7.204650000000000221e-01 5.078920000000000101e-01 -2.416929999999999912e-01 3.886620000000000075e-01 3.115850000000000009e-01 -3.521529999999999938e-01 5.390270000000000339e-01 -9.050700000000000411e-02 -7.309849999999999959e-01 -1.848390000000000033e-01 6.262630000000000141e-01 -9.857510000000000439e-01 -7.629669999999999508e-01 -1.879769000000000023e+00 7.248250000000000526e-01 -1.046840999999999910e+00 2.244300000000000114e-02 -3.369579999999999798e-01 -3.908079999999999887e-01 2.797589999999999799e-01 3.599870000000000014e-01 9.085450000000000470e-01 8.860810000000000075e-01 -1.774615999999999971e+00 -1.366239999999999954e-01 -1.835809999999999942e-01 3.702590000000000048e-01 -5.001240000000000130e-01 -2.466639999999999944e-01 2.775219999999999909e-01 -2.589520000000000155e-01 1.066119999999999984e-01 -3.364880000000000093e-01 -1.274589999999999890e-01 1.060181000000000040e+00 5.161000000000000032e-01 -6.435250000000000137e-01 1.653439999999999910e-01 -5.926799999999999846e-01 -6.378000000000000336e-02 5.360930000000000417e-01 -7.881399999999999517e-02 -1.155774999999999997e+00
2.522174000000000138e+00 2.450559999999999961e-01 -2.181569999999999898e-01 -1.450963000000000003e+00 -1.262138999999999900e+00 6.069320000000000270e-01 -3.681170000000000275e-01 1.764189999999999925e-01 -2.241390000000000049e-01 -3.622029999999999972e-01 -3.732686000000000170e+00 -4.781300000000000133e-02 -4.416740000000000110e-01 5.250979999999999537e-01 -2.884160000000000057e-01 -1.386493999999999893e+00 7.978699999999999681e-02 3.682540000000000258e-01 9.470499999999999474e-01 -1.274510000000000087e-01 2.157300000000000051e-01 9.721199999999999841e-01 2.115080000000000016e-01 -7.739770000000000261e-01 -9.201449999999999907e-01 4.721369999999999734e-01 1.302200000000000059e-02 4.524886999999999659e+00 3.434570000000000123e-01 1.675270000000000092e-01 -1.516844000000000081e+00 -8.643499999999999517e-01 1.124359000000000108e+00 1.693351999999999968e+00 1.706142999999999965e+00 -2.138764000000000109e+00 3.738330000000000264e-01 2.079620999999999942e+00 -2.854869999999999908e-01 2.053624000000000116e+00 3.543569999999999776e-01 -6.780200000000000116e-02 7.934320000000000261e-01 -1.673669999999999991e+00 2.004305000000000003e+00 -3.954936000000000007e+00 -8.069929999999999604e-01 -1.080348000000000086e+00 6.393079999999999874e-01 7.450090000000000323e-01 2.094110000000000138e-01 -1.376800999999999942e+00 -8.226020000000000554e-01 -2.322339999999999960e-01 -1.652839999999999865e-01 -1.204491999999999896e+00 9.178370000000000140e-01 -1.297188000000000008e+00 4.579820000000000002e-01 4.416930000000000023e-01 1.037109999999999976e-01 -1.579550000000000121e-01 8.997929999999999540e-01 -1.002725000000000088e+00 -5.361639999999999739e-01 2.528489999999999904e-01 -4.887400000000000078e-01 3.502308000000000199e+00 1.447896999999999990e+00 2.104719999999999924e+00 -1.447478999999999960e+00 1.218199999999999950e+00 -8.440320000000000045e-01 1.372039000000000009e+00 -2.353753000000000206e+00 -2.335659999999999958e-01 2.002686000000000188e+00 2.535085000000000033e+00 1.102492000000000028e+00 1.305230000000000001e-01 3.925799999999999845e-01 1.750285000000000091e+00 6.572430000000000216e-01 -4.890269999999999895e-01 -6.356599999999999751e-02 -1.874058000000000002e+00 -4.351369999999999960e-01 -1.118227000000000082e+00 1.167264000000000079e+00 -2.434693000000000218e+00 -5.431359999999999522e-01 -7.969709999999999850e-01 7.411269999999999802e-01 9.490790000000000060e-01 1.495133000000000045e+00 -7.086399999999999644e-02 1.037986999999999993e+00 -1.776310000000000111e-01 2.025280000000000136e-01 -1.316886000000000001e+00 2.543700000000000128e-02 2.492652999999999786e+00 3.480010000000000048e-01 2.517090000000000161e-01 4.228029999999999844e-01 -2.300040999999999780e+00 5.217270000000000518e-01 6.658039999999999514e-01 2.572220000000000062e-01 9.141939999999999511e-01 6.314739999999999798e-01 -5.719880000000000519e-01 1.129300000000000026e-01 -1.996162999999999910e+00 9.386660000000000004e-01 4.441820000000000213e-01 -1.359777000000000013e+00 -7.732000000000000157e-03 -2.060416000000000025e+00 2.242005999999999943e+00 8.942999999999999838e-01 8.174700000000000022e-02 -1.300353000000000092e+00 -4.503570000000000073e-01 -1.214064000000000032e+00 5.292399999999999882e-02 -3.434700000000000253e-02 -1.570292000000000021e+00 3.738389999999999769e-01 -2.160950000000000093e-01 5.595259999999999678e-01 -1.947397000000000045e+00 8.598160000000000247e-01 1.812683999999999962e+00 -1.408830999999999944e+00 -1.153289999999999926e+00 -1.618641999999999914e+00 -1.166554000000000091e+00 -1.418293999999999944e+00 3.704620000000000135e-01 6.222600000000000353e-01 -6.611639999999999739e-01 -5.365259999999999474e-01 2.585450000000000248e-01 1.260162000000000004e+00 -8.318999999999999728e-01 4.241110000000000158e-01 -2.960820000000000118e-01 -1.025371999999999950e+00 -1.517991000000000090e+00 -1.085156999999999927e+00 -1.551760000000000084e-01 3.358840000000000159e-01 -7.120500000000000440e-02 1.666309999999999958e+00 1.106489000000000056e+00 9.910579999999999945e-01 1.234700000000000034e-02 -1.550241999999999898e+00
4.511470000000000202e-01 5.893389999999999462e-01 1.799310000000000076e-01 2.083180000000000032e-01 4.262790000000000190e-01 3.653560000000000141e-01 -1.202418999999999905e+00 -1.157596999999999987e+00 -1.212590000000000057e-01 -5.933650000000000313e-01 2.777200000000000224e-01 1.157014999999999905e+00 -1.249967999999999968e+00 -1.668851000000000084e+00 -7.336199999999999666e-02 7.341109999999999580e-01 4.915579999999999949e-01 6.656299999999999717e-02 -8.847869999999999902e-01 5.996289999999999676e-01 1.065200000000000036e-01 1.094506999999999897e+00 2.572100000000000081e-02 -6.294629999999999947e-01 -1.912800000000000056e-01 8.939700000000000424e-02 -3.776769999999999849e-01 -4.958130000000000037e-01 -1.358103000000000060e+00 7.389179999999999637e-01 -1.397390000000000021e-01 -1.416184000000000109e+00 -3.886220000000000230e-01 1.117747000000000046e+00 1.579515999999999920e+00 5.713759999999999950e-01 -3.361700000000000244e-01 -1.187437000000000076e+00 -2.427601000000000120e+00 1.111806999999999990e+00 -5.420829999999999815e-01 1.015643999999999991e+00 2.904630000000000267e-01 1.260834000000000010e+00 5.646799999999999736e-02 6.100489999999999524e-01 1.309893999999999892e+00 -1.004200000000000058e-02 -2.885929999999999884e-01 -9.342399999999999316e-02 3.233719999999999928e-01 2.290040000000000131e-01 -1.855506000000000100e+00 1.462290000000000090e+00 1.913779999999999926e-01 -5.557229999999999670e-01 1.278531000000000084e+00 3.699609999999999843e-01 5.849929999999999852e-01 2.882000000000000117e-01 -3.392890000000000073e-01 -3.516029999999999989e-01 1.585660000000000125e-01 1.825670000000000071e-01 -1.378818000000000099e+00 1.353121999999999936e+00 1.325780000000000014e-01 -1.991000000000000061e-02 -1.371976000000000084e+00 1.512020000000000031e-01 8.337010000000000254e-01 -7.150440000000000129e-01 1.094343000000000066e+00 -5.175689999999999458e-01 2.632944000000000173e+00 5.339469999999999494e-01 9.252789999999999626e-01 -4.879769999999999941e-01 5.140519999999999534e-01 -2.431845000000000034e+00 -4.855729999999999769e-01 5.248899999999999677e-01 8.662840000000000540e-01 -6.594200000000000061e-01 -1.286909000000000081e+00 -4.378710000000000102e-01 4.716929999999999734e-01 -1.592929999999999902e-01 1.553441000000000072e+00 1.779709999999999903e-01 4.489090000000000025e-01 5.838830000000000409e-01 -5.179600000000000176e-02 3.495329999999999826e-01 -8.697620000000000351e-01 -1.697579999999999922e-01 -8.652699999999999836e-01 -1.340280000000000082e-01 -2.254170000000000063e-01 -5.566699999999999982e-01 -2.461000000000000080e-03 -2.113119999999999998e-01 -1.793430999999999997e+00 -1.269500000000000073e-01 1.646223999999999910e+00 6.069799999999999640e-01 4.589770000000000238e-01 -7.494720000000000271e-01 -8.977289999999999992e-01 9.029840000000000089e-01 -1.336737999999999982e+00 6.282649999999999624e-01 -4.045909999999999784e-01 3.791629999999999723e-01 9.886899999999999855e-02 4.662229999999999985e-01 -1.712175999999999920e+00 1.118419999999999970e-01 3.659149999999999903e-01 1.281720000000000081e-01 2.963270000000000071e-01 -1.214963000000000015e+00 1.299400000000000034e-02 1.340840000000000087e-01 -1.164563000000000015e+00 -4.895329999999999959e-01 6.497380000000000377e-01 -1.195912000000000086e+00 -2.869880000000000209e-01 -2.670000000000000151e-01 2.338280000000000081e-01 -8.729620000000000157e-01 -1.072462999999999944e+00 2.266407000000000060e+00 -1.014885000000000037e+00 2.623300000000000076e-01 1.335739999999999983e-01 -1.287045999999999912e+00 6.553989999999999538e-01 9.308539999999999592e-01 6.447479999999999878e-01 -6.186770000000000325e-01 -3.014129999999999865e-01 1.395686999999999900e+00 -2.856909999999999727e-01 2.174619999999999886e-01 4.475060000000000149e-01 -9.507330000000000503e-01 1.612260000000000082e-01 -7.511000000000000315e-03 2.275260000000000060e-01 7.355999999999999692e-03 -1.008118999999999987e+00 -5.245619999999999727e-01 2.228413000000000199e+00 9.917300000000000004e-01 9.879839999999999733e-01 1.648300000000000112e-02 -8.789759999999999796e-01
4.326189999999999758e-01 -6.292740000000000000e-01 1.363620000000000110e-01 2.907890000000000197e-01 7.318999999999999985e-03 2.150990000000000124e-01 -1.868309999999999971e-01 1.212822000000000067e+00 -1.074618999999999991e+00 1.705010000000000137e-01 -4.602559999999999985e-01 7.889829999999999899e-01 -1.191775999999999947e+00 1.038980000000000042e-01 1.531363000000000030e+00 3.977829999999999977e-01 2.610770000000000035e-01 2.496839999999999893e-01 -2.827370000000000161e-01 5.404010000000000202e-01 -5.375839999999999508e-01 4.869160000000000155e-01 4.072339999999999849e-01 7.167829999999999480e-01 -2.784599999999999922e-02 -5.229719999999999924e-01 -1.972550999999999943e+00 3.449869999999999881e-01 4.289379999999999860e-01 8.480860000000000065e-01 6.599479999999999791e-01 -6.578410000000000091e-01 -1.310073999999999961e+00 -7.902839999999999865e-01 -2.755000000000000157e-02 3.720979999999999843e-01 3.860750000000000015e-01 1.016119999999999940e-01 -3.548709999999999920e-01 6.822200000000000486e-01 1.209986999999999924e+00 -1.793879999999999919e-01 -1.233961000000000086e+00 1.705880000000000063e+00 -1.202379999999999977e-01 -2.323749999999999982e-01 1.014124999999999943e+00 8.069629999999999859e-01 6.205999999999999711e-03 -2.973089999999999899e-01 -7.534140000000000281e-01 2.612340000000000217e-01 -1.367467999999999906e+00 -1.205915999999999988e+00 4.005569999999999964e-01 1.830940000000000067e-01 1.354603999999999919e+00 -9.263850000000000140e-01 -7.384650000000000380e-01 -1.049646999999999997e+00 -1.495740000000000125e-01 -1.868006000000000055e+00 -1.417397999999999936e+00 5.546140000000000514e-01 2.579779999999999851e-01 -5.539079999999999560e-01 -3.547130000000000005e-01 7.756979999999999986e-01 -2.144967999999999986e+00 -8.216860000000000275e-01 1.431159999999999988e+00 5.402719999999999745e-01 -5.490009999999999613e-01 1.327927000000000080e+00 1.423148000000000080e+00 -4.509429999999999827e-01 2.664499999999999855e-02 -4.705179999999999918e-01 -6.132210000000000161e-01 -2.245700000000000127e-02 -9.107720000000000260e-01 6.434480000000000199e-01 1.258720999999999979e+00 8.987739999999999618e-01 8.050420000000000353e-01 6.879800000000000360e-01 -1.332319999999999893e-01 5.857199999999999906e-02 -1.963594999999999979e+00 -1.293365000000000098e+00 -4.447340000000000182e-01 -3.498589999999999756e-01 -6.662919999999999954e-01 -1.110284000000000049e+00 -6.493719999999999493e-01 5.648500000000000049e-02 1.633463000000000109e+00 4.611430000000000251e-01 3.498700000000000143e-01 9.453099999999999836e-01 4.823800000000000310e-02 -1.204019999999999951e-01 1.269614000000000020e+00 7.470200000000000173e-01 -4.360140000000000127e-01 3.108739999999999837e-01 -1.833509999999999862e-01 6.569390000000000507e-01 -3.238179999999999947e-01 -3.751490000000000102e-01 8.299710000000000143e-01 -1.288502000000000036e+00 -2.222999999999999976e-01 -2.074050000000000060e-01 1.967750000000000055e-01 1.682471999999999968e+00 2.275638999999999967e+00 -2.940789999999999793e-01 -9.709389999999999965e-01 -5.131829999999999448e-01 -3.130939999999999834e-01 4.676400000000000001e-02 5.709560000000000191e-01 4.537000000000000234e-03 6.342759999999999510e-01 4.065730000000000177e-01 -2.653900000000000148e-01 -2.351640000000000119e-01 -2.924889999999999990e-01 -7.364009999999999723e-01 1.463679999999999981e-01 2.737799999999999956e-02 2.952489999999999837e-01 -6.403149999999999675e-01 3.658700000000000147e-02 -3.930000000000000160e-02 1.222290000000000043e-01 1.415831000000000062e+00 3.286310000000000064e-01 -9.049540000000000362e-01 2.166800000000000115e-01 -3.421199999999999797e-01 -1.032583000000000029e+00 -1.122524000000000077e+00 1.282531000000000088e+00 5.243240000000000123e-01 -6.858000000000000207e-02 6.968429999999999902e-01 -8.906410000000000160e-01 9.393169999999999575e-01 -1.565519999999999967e-01 -7.126360000000000472e-01 2.907930000000000237e-01 6.874789999999999512e-01 -1.207853999999999983e+00 -6.211689999999999712e-01 -1.107205999999999912e+00 -4.250200000000000089e-01 1.575285000000000046e+00
1.466059000000000001e+00 2.469179999999999986e-01 -5.439000000000000501e-01 -2.767059000000000157e+00 -1.845209999999999906e-01 1.718628999999999962e+00 -1.271566999999999892e+00 -1.215011000000000063e+00 -2.592019999999999880e-01 2.583235000000000170e+00 -6.610230000000000272e-01 -6.712669999999999471e-01 -5.778799999999999493e-01 1.690388999999999919e+00 -6.476189999999999447e-01 2.376119999999999899e-01 -1.062791999999999959e+00 3.725510000000000210e-01 -5.504529999999999701e-01 3.086630000000000207e-01 -4.615580000000000238e-01 -2.286183999999999994e+00 5.542110000000000092e-01 1.433899999999999932e-02 -2.382219999999999893e-01 -2.233279999999999987e-01 -2.531245000000000189e+00 -4.847879999999999967e-01 -8.562020000000000186e-01 3.588910000000000156e-01 -1.963550000000000018e-01 -2.200030000000000041e-01 2.422940000000000094e-01 -3.901780000000000248e-01 -1.290139999999999898e-01 8.858629999999999560e-01 1.386630000000000085e-01 -2.715047999999999906e+00 1.129415999999999976e+00 4.224829999999999974e-01 -6.390010000000000412e-01 2.326940000000000119e-01 -1.386789999999999967e-01 -2.151150000000000007e-01 1.358129999999999893e-01 2.027032999999999863e+00 1.047682000000000002e+00 -2.080135999999999985e+00 1.180190999999999990e+00 6.290400000000000436e-01 -6.128139999999999699e-01 7.573339999999999517e-01 1.231484999999999941e+00 1.258235999999999910e+00 -1.400964000000000098e+00 -5.816400000000000459e-01 -4.127700000000000258e-01 6.145819999999999617e-01 -7.153399999999999759e-01 -1.307399999999999951e-01 4.488480000000000247e-01 -8.931149999999999922e-01 -1.624695999999999918e+00 -2.137689999999999868e-01 -9.701490000000000391e-01 1.401410999999999962e+00 -1.546613000000000016e+00 -9.243400000000000227e-02 -1.004472999999999949e+00 -1.525492000000000070e+00 2.880409999999999915e-01 2.042915999999999954e+00 3.863926000000000194e+00 2.668393000000000015e+00 -6.760749999999999815e-01 -3.874600000000000266e-01 1.649008000000000029e+00 -4.149920000000000275e-01 -2.520669999999999855e-01 6.964780000000000415e-01 -5.960299999999999487e-01 1.248502999999999918e+00 1.552473999999999910e+00 -2.841115999999999975e+00 5.017850000000000366e-01 2.621910000000000074e-01 -1.666155999999999970e+00 -8.044249999999999456e-01 4.187219999999999831e-01 7.307670000000000554e-01 -1.905095999999999901e+00 2.193769999999999887e-01 1.386589000000000071e+00 1.493881999999999932e+00 1.219187999999999938e+00 -8.103609999999999980e-01 -1.348409999999999886e-01 1.131000000000000061e-02 4.203819999999999779e-01 -1.538051999999999975e+00 -2.021142000000000216e+00 1.765950000000000020e-01 2.135416999999999899e+00 -2.185086000000000084e+00 1.642576999999999954e+00 1.245052999999999965e+00 -9.690569999999999462e-01 8.135240000000000249e-01 6.757830000000000226e-01 9.605369999999999742e-01 -1.204541000000000084e+00 -2.255099999999999882e-01 2.022784999999999833e+00 7.912099999999999689e-01 3.570439999999999725e-01 1.568921999999999928e+00 7.724060000000000370e-01 -2.339633000000000074e+00 -1.933575000000000044e+00 1.195594000000000046e+00 1.354343999999999992e+00 -1.495720000000000105e-01 -3.937359999999999749e-01 1.003521000000000107e+00 1.222293999999999992e+00 -1.842748999999999970e+00 -3.297200000000000131e-01 -8.094029999999999836e-01 -8.842010000000000147e-01 -9.263069999999999915e-01 -9.712279999999999802e-01 2.578218999999999816e+00 -1.623164999999999969e+00 -1.181024000000000074e+00 6.807180000000000453e-01 4.480410000000000226e-01 2.091559000000000168e+00 1.936199999999999866e-01 1.603753999999999902e+00 9.831520000000000259e-01 3.570439999999999725e-01 -8.052650000000000086e-01 1.283805000000000085e+00 -1.605266999999999999e+00 -7.693759999999999488e-01 2.136339999999999906e-01 -1.121800000000000054e-02 3.480610000000000093e-01 4.560540000000000149e-01 -8.211680000000000090e-01 -1.036575000000000024e+00 -1.857985999999999915e+00 2.709190000000000209e-01 9.422279999999999545e-01 -2.970070999999999906e+00 9.874420000000000419e-01 -4.316829999999999834e-01 9.255659999999999998e-01 1.957368999999999915e+00
6.141889999999999850e-01 -1.982855000000000034e+00 -3.352116000000000096e+00 6.983730000000000215e-01 -1.315534999999999899e+00 1.245244999999999935e+00 -1.625563000000000091e+00 -1.335300000000000098e-01 -1.921710000000000085e-01 1.245521000000000100e+00 -1.484793000000000029e+00 -2.515683999999999809e+00 6.335790000000000033e-01 4.967940000000000134e-01 -4.270800000000000152e-01 -3.292443000000000008e+00 -4.627020000000000022e-01 2.589995000000000047e+00 7.294720000000000093e-01 -8.058809999999999585e-01 5.815900000000000236e-02 8.319189999999999641e-01 4.706600000000000228e-01 -2.631178999999999935e+00 -4.337909999999999822e-01 -8.548740000000000228e-01 -2.530299999999999772e-01 -3.882650000000000268e-01 2.972150000000000070e-01 7.333760000000000279e-01 -1.317086999999999897e+00 6.835229999999999917e-01 3.124279999999999835e-01 -3.992799999999999822e-02 2.987779999999999880e-01 7.494340000000000446e-01 1.570190999999999892e+00 -4.578499999999999931e-02 2.531919999999999726e-01 -7.734099999999999309e-02 -8.623399999999999954e-01 -1.561058999999999974e+00 -3.353090000000000237e-01 -9.396980000000000333e-01 -1.250640000000000085e-01 -1.600400000000000086e-02 8.500649999999999595e-01 -3.022659999999999791e-01 -5.543289999999999607e-01 1.053420000000000051e-01 1.244671000000000083e+00 1.412789999999999990e+00 2.493059999999999998e-01 -4.525710000000000011e-01 6.443290000000000406e-01 9.054649999999999643e-01 -7.130739999999999856e-01 9.669079999999999897e-01 -2.032160999999999884e+00 1.074163999999999897e+00 -5.155659999999999688e-01 -9.242730000000000112e-01 -1.519673999999999969e+00 -6.244039999999999591e-01 2.114779999999999993e-01 8.855030000000000401e-01 9.189699999999999536e-01 6.996069999999999789e-01 -2.503719999999999835e-01 -2.377730000000000121e-01 1.270597999999999894e+00 1.699150000000000105e-01 -2.533301999999999943e+00 -6.461289999999999534e-01 -7.759319999999999551e-01 -7.681989999999999652e-01 -4.686600000000000210e-01 2.898641000000000023e+00 4.047180000000000222e-01 -2.239710999999999785e+00 2.399840000000000029e-01 8.793900000000000050e-01 2.420899999999999996e-01 -6.706100000000000394e-01 -2.387330000000000008e-01 8.549120000000000053e-01 3.379229999999999734e-01 2.562889999999999890e-01 1.424219999999999930e-01 -4.433779999999999943e-01 -1.634000000000000036e-03 -1.438889999999999891e-01 -1.446125000000000105e+00 2.900030000000000108e+00 1.306203000000000003e+00 1.390779999999999905e+00 -9.928759999999999808e-01 1.112492999999999954e+00 -4.415800000000000280e-02 -3.364369999999999861e-01 -9.079720000000000013e-01 -1.219526000000000110e+00 8.916049999999999809e-01 -5.040550000000000308e-01 1.346152999999999933e+00 -7.447700000000000153e-02 -2.864500000000000032e-02 -2.662849999999999939e-01 -1.613725000000000076e+00 1.499948000000000059e+00 -1.992432999999999899e+00 2.388069999999999915e-01 9.671380000000000532e-01 2.137945999999999902e+00 -1.425230999999999915e+00 1.853657000000000110e+00 1.010326000000000057e+00 1.356006000000000045e+00 -6.269780000000000353e-01 1.115509000000000084e+00 -1.188680000000000014e-01 -1.188153000000000015e+00 9.343690000000000051e-01 -2.238052999999999848e+00 9.808620000000000116e-01 -4.644920000000000160e-01 8.194700000000000317e-01 3.586489999999999956e-01 -7.862800000000000344e-02 1.354370000000000018e-01 -3.753340000000000010e-01 2.634259999999999935e-01 -1.381102000000000052e+00 -8.340999999999999456e-03 3.413930000000000020e-01 2.048399999999999943e-01 2.956459000000000170e+00 9.775160000000000515e-01 -8.227719999999999478e-01 1.214360000000000106e+00 3.427310000000000079e-01 1.528419999999999890e+00 -1.805867000000000111e+00 -5.616400000000000281e-01 -7.485600000000000032e-01 1.713840000000000030e+00 2.147229999999999972e-01 -3.748130000000000073e-01 -1.040200999999999931e+00 -4.612200000000000327e-02 -9.358739999999999837e-01 -2.700560000000000183e-01 -4.028800000000000159e-01 8.621320000000000094e-01 6.068620000000000125e-01 1.153760000000000063e-01 3.319075999999999915e+00 -2.503090000000000037e-01 -2.753249999999999864e-01