1.589239999999999986e+00 7.916999999999999593e-01 3.026909999999999989e+00 1.734339999999999993e+00 8.024599999999999511e-01 7.285549999999999748e+00 6.490859999999999630e+00 3.584090000000000220e+00 3.101739999999999942e+00 6.527800000000000047e+00 3.770760000000000112e+00 7.122840000000000060e+00 5.066970000000000418e+00 6.698800000000000310e+00 3.122869999999999813e+00 5.078000000000000291e+00 6.630099999999999660e+00 7.187050000000000161e+00 4.882900000000000240e+00 7.978300000000000392e-01 3.174430000000000085e+00 4.854009999999999714e+00 1.027840000000000087e+00 7.183279999999999887e+00 3.381170000000000009e+00 3.734820000000000029e+00 3.027839999999999865e+00 3.264100000000000001e+00 3.651349999999999874e+00 7.090469999999999828e+00 2.094510000000000094e+00 6.598910000000000053e+00 3.103209999999999802e+00 1.936430000000000096e+00 6.570479999999999876e+00 7.211859999999999715e+00 6.365940000000000154e+00 1.863779999999999992e+00 1.005560000000000009e+00 6.453969999999999985e+00 1.916349999999999998e+00 5.131280000000000285e+00 4.858010000000000161e+00 4.799319999999999808e+00 9.430100000000000149e-01 4.867729999999999890e+00 4.758860000000000312e+00 5.168929999999999580e+00 3.493250000000000188e+00 7.584480000000000111e+00 1.044920000000000071e+00 3.482559999999999878e+00 7.545569999999999666e+00 5.067549999999999777e+00 3.171829999999999927e+00 1.963060000000000027e+00 1.124789999999999957e+00 3.209000000000000075e+00 1.885399999999999965e+00 5.089640000000000164e+00 1.761719999999999953e+00 4.811379999999999768e+00 9.943499999999999561e-01 1.698769999999999891e+00 4.773089999999999833e+00 5.096569999999999823e+00 6.519149999999999778e+00 7.665919999999999845e+00 9.553199999999999470e-01 6.609740000000000393e+00 7.582410000000000316e+00 5.236670000000000158e+00 6.181090000000000195e+00 5.927039999999999864e+00 3.038279999999999870e+00 1.641880000000000006e+00 8.549099999999999477e-01 9.371099999999999985e-01 1.654809999999999892e+00 8.283800000000000052e-01 5.075639999999999930e+00 6.540020000000000167e+00 3.808120000000000172e+00 9.735200000000000520e-01 6.608120000000000438e+00 3.706850000000000200e+00 5.157820000000000071e+00 5.095340000000000202e+00 6.654539999999999900e+00 8.542899999999999938e-01 5.116030000000000300e+00 6.610339999999999883e+00 5.073879999999999946e+00 4.762979999999999769e+00 9.268399999999999972e-01 9.104700000000000015e-01 4.739799999999999791e+00 8.438200000000000145e-01 5.147929999999999673e+00 3.251920000000000144e+00 3.774760000000000115e+00 1.092969999999999997e+00 3.328969999999999985e+00 3.754859999999999864e+00 5.045930000000000248e+00 1.921910000000000007e+00 6.751439999999999664e+00 1.117210000000000036e+00 1.884360000000000035e+00 6.585130000000000372e+00 5.179859999999999687e+00 6.365980000000000416e+00 1.803949999999999942e+00 3.095009999999999817e+00 6.489399999999999835e+00 1.971970000000000001e+00 7.071349999999999802e+00 4.928370000000000140e+00 4.683259999999999756e+00 2.945279999999999898e+00 4.913660000000000139e+00 4.686110000000000220e+00 7.085740000000000371e+00 3.521180000000000199e+00 7.591149999999999842e+00 3.114759999999999973e+00 3.495169999999999888e+00 7.655240000000000045e+00 7.104309999999999903e+00 3.356580000000000119e+00 1.886630000000000029e+00 3.060690000000000133e+00 3.252769999999999939e+00 1.890220000000000011e+00 7.186209999999999987e+00 1.559069999999999956e+00 4.711109999999999687e+00 3.045409999999999950e+00 1.677110000000000101e+00 4.770480000000000054e+00 7.298490000000000144e+00 6.626689999999999969e+00 7.583490000000000286e+00 2.997269999999999879e+00 6.686700000000000088e+00 7.671050000000000146e+00 7.016000000000000014e+00
1.713999999999999968e+00 9.264400000000000412e-01 3.444370000000000154e+00 1.696860000000000035e+00 1.169010000000000105e+00 7.850880000000000081e+00 6.614349999999999952e+00 3.842410000000000103e+00 3.429860000000000131e+00 6.825219999999999843e+00 3.933139999999999858e+00 8.048069999999999169e+00 5.265159999999999840e+00 6.455149999999999721e+00 3.971060000000000034e+00 5.102009999999999934e+00 6.836529999999999774e+00 7.946410000000000196e+00 4.874430000000000263e+00 8.687599999999999767e-01 3.602640000000000065e+00 4.994780000000000442e+00 1.189640000000000031e+00 8.141650000000000276e+00 3.294890000000000096e+00 3.623720000000000052e+00 3.229459999999999997e+00 3.540880000000000027e+00 3.850740000000000052e+00 8.116199999999999193e+00 1.809309999999999974e+00 6.625609999999999999e+00 3.523410000000000153e+00 1.848440000000000083e+00 6.620169999999999888e+00 7.993579999999999686e+00 6.564549999999999663e+00 1.957109999999999905e+00 1.518489999999999895e+00 6.499679999999999680e+00 2.028770000000000184e+00 5.622239999999999682e+00 5.141589999999999883e+00 4.627769999999999939e+00 1.126670000000000060e+00 5.024359999999999715e+00 4.723060000000000258e+00 5.926029999999999909e+00 3.322259999999999991e+00 7.564499999999999780e+00 1.011560000000000015e+00 3.494829999999999881e+00 7.543210000000000193e+00 5.798659999999999926e+00 3.197020000000000195e+00 1.706569999999999920e+00 1.304459999999999953e+00 3.274589999999999890e+00 1.986359999999999904e+00 5.662709999999999688e+00 1.799709999999999921e+00 4.725030000000000285e+00 1.279779999999999918e+00 1.811109999999999998e+00 4.815330000000000332e+00 5.684750000000000192e+00 6.616929999999999978e+00 7.537420000000000009e+00 1.369280000000000053e+00 6.745140000000000136e+00 7.658439999999999692e+00 5.949430000000000440e+00 4.151349999999999874e+00 5.910610000000000142e+00 3.497520000000000184e+00 1.659299999999999997e+00 9.135699999999999932e-01 1.276420000000000110e+00 1.570370000000000044e+00 9.710699999999999887e-01 5.736100000000000421e+00 6.730380000000000251e+00 3.772670000000000190e+00 1.111720000000000041e+00 6.583249999999999602e+00 3.979210000000000136e+00 5.384520000000000195e+00 5.065719999999999779e+00 6.563649999999999984e+00 7.743200000000000083e-01 4.991100000000000314e+00 6.701769999999999783e+00 5.775470000000000326e+00 4.929540000000000255e+00 1.016880000000000006e+00 1.024809999999999999e+00 4.902759999999999785e+00 1.028029999999999999e+00 5.496369999999999756e+00 3.384739999999999860e+00 3.722350000000000048e+00 1.115669999999999940e+00 3.440199999999999925e+00 3.981020000000000003e+00 5.376380000000000159e+00 1.676190000000000069e+00 6.572149999999999714e+00 1.150539999999999896e+00 1.734720000000000040e+00 6.762059999999999960e+00 5.644899999999999807e+00 6.513069999999999915e+00 1.983940000000000037e+00 3.266480000000000050e+00 6.687310000000000088e+00 2.172120000000000051e+00 7.741130000000000067e+00 4.960440000000000182e+00 4.397649999999999615e+00 3.081989999999999785e+00 5.284309999999999619e+00 4.819460000000000299e+00 7.920620000000000438e+00 3.399369999999999781e+00 7.502909999999999968e+00 3.403469999999999995e+00 3.395179999999999865e+00 7.653629999999999711e+00 7.962360000000000326e+00 3.258179999999999854e+00 1.824359999999999982e+00 3.398849999999999927e+00 3.244810000000000194e+00 2.087299999999999933e+00 7.577060000000000350e+00 1.816429999999999989e+00 4.769020000000000259e+00 3.232260000000000133e+00 2.025830000000000020e+00 4.795659999999999812e+00 7.854529999999999568e+00 6.636219999999999786e+00 7.467120000000000424e+00 3.287609999999999921e+00 6.860680000000000334e+00 7.740140000000000242e+00 7.794330000000000425e+00
1.625879999999999992e+00 8.659499999999999975e-01 3.142240000000000144e+00 1.787169999999999925e+00 7.799899999999999611e-01 7.556549999999999656e+00 6.611780000000000435e+00 3.594469999999999832e+00 3.010660000000000114e+00 6.729149999999999743e+00 3.552099999999999813e+00 7.509559999999999569e+00 4.534370000000000012e+00 6.394829999999999792e+00 2.900640000000000107e+00 5.084329999999999572e+00 6.389999999999999680e+00 7.516370000000000218e+00 5.115639999999999965e+00 9.296100000000000474e-01 3.350389999999999979e+00 5.003659999999999997e+00 9.729700000000000015e-01 7.475349999999999717e+00 3.383370000000000211e+00 3.646749999999999936e+00 3.197099999999999831e+00 3.492140000000000022e+00 3.591979999999999951e+00 7.495930000000000426e+00 1.853599999999999914e+00 6.534980000000000011e+00 3.198920000000000208e+00 1.909559999999999924e+00 6.345110000000000028e+00 7.474120000000000097e+00 6.535510000000000375e+00 1.690669999999999895e+00 9.403799999999999937e-01 6.641580000000000261e+00 1.693680000000000074e+00 5.356830000000000425e+00 5.058309999999999640e+00 4.635699999999999932e+00 1.011929999999999996e+00 5.170960000000000001e+00 4.550880000000000258e+00 5.493540000000000312e+00 3.307809999999999917e+00 7.417690000000000339e+00 9.491000000000000547e-01 3.563460000000000072e+00 7.387430000000000163e+00 5.525769999999999627e+00 3.314270000000000049e+00 1.832810000000000050e+00 1.296720000000000095e+00 3.352129999999999832e+00 1.792750000000000066e+00 5.364489999999999981e+00 1.652859999999999996e+00 4.587150000000000283e+00 1.209780000000000078e+00 1.814910000000000023e+00 4.582099999999999618e+00 5.258029999999999760e+00 6.559720000000000439e+00 7.433110000000000106e+00 1.186010000000000009e+00 6.899910000000000210e+00 7.499060000000000059e+00 5.512059999999999960e+00 5.702910000000000146e+00 6.332060000000000244e+00 3.554120000000000168e+00 1.755789999999999962e+00 7.919899999999999718e-01 8.385799999999999921e-01 1.661540000000000017e+00 8.212500000000000355e-01 5.292430000000000412e+00 6.579979999999999940e+00 3.680180000000000007e+00 1.261179999999999968e+00 6.731370000000000076e+00 3.523690000000000211e+00 5.539209999999999745e+00 4.889160000000000394e+00 6.620589999999999975e+00 9.481600000000000028e-01 5.123610000000000220e+00 6.529840000000000089e+00 5.615870000000000140e+00 4.800620000000000331e+00 8.498299999999999743e-01 9.750900000000000123e-01 5.126529999999999809e+00 8.743499999999999606e-01 5.317719999999999558e+00 3.271659999999999791e+00 3.742379999999999818e+00 1.207920000000000105e+00 3.554619999999999891e+00 3.797260000000000080e+00 5.334990000000000343e+00 1.609709999999999974e+00 6.420580000000000176e+00 8.641299999999999537e-01 1.891780000000000017e+00 6.540130000000000443e+00 5.282420000000000115e+00 6.532680000000000042e+00 1.849580000000000002e+00 3.014219999999999899e+00 6.749329999999999607e+00 1.778410000000000046e+00 7.653159999999999741e+00 5.006940000000000168e+00 4.592859999999999943e+00 3.053659999999999819e+00 5.050609999999999822e+00 4.482339999999999769e+00 7.517710000000000115e+00 3.275079999999999991e+00 7.539509999999999934e+00 3.040630000000000166e+00 3.415480000000000071e+00 7.399090000000000167e+00 7.524300000000000210e+00 3.324440000000000062e+00 1.716820000000000013e+00 3.398070000000000146e+00 3.301470000000000127e+00 1.822519999999999918e+00 7.447180000000000355e+00 1.676069999999999949e+00 4.616460000000000008e+00 3.272699999999999942e+00 1.883659999999999890e+00 4.491850000000000342e+00 7.512760000000000105e+00 6.847529999999999895e+00 7.609259999999999913e+00 3.140379999999999949e+00 6.681510000000000282e+00 7.488819999999999588e+00 7.379690000000000083e+00
1.393629999999999924e+00 9.758700000000000152e-01 3.326779999999999848e+00 1.302699999999999969e+00 8.406500000000000083e-01 7.719369999999999621e+00 6.315129999999999910e+00 3.624730000000000008e+00 3.287469999999999892e+00 6.043840000000000323e+00 3.777519999999999989e+00 7.521480000000000388e+00 3.913769999999999971e+00 6.447020000000000195e+00 3.820939999999999781e+00 4.376070000000000348e+00 6.486760000000000304e+00 7.466529999999999667e+00 4.657540000000000013e+00 1.101290000000000102e+00 3.143120000000000136e+00 4.400920000000000165e+00 1.035670000000000091e+00 7.497469999999999857e+00 2.978270000000000195e+00 3.751739999999999853e+00 3.233680000000000110e+00 2.667089999999999961e+00 3.852199999999999847e+00 7.406369999999999898e+00 1.173329999999999984e+00 6.675889999999999880e+00 3.227149999999999963e+00 1.003090000000000037e+00 6.516460000000000363e+00 7.409950000000000259e+00 6.363240000000000229e+00 1.859280000000000044e+00 9.376999999999999780e-01 6.270270000000000010e+00 1.943319999999999936e+00 5.392990000000000173e+00 4.760379999999999612e+00 4.524490000000000123e+00 1.116719999999999935e+00 4.571360000000000312e+00 4.388840000000000074e+00 5.256850000000000023e+00 2.999220000000000219e+00 7.504559999999999675e+00 1.309160000000000101e+00 2.730589999999999851e+00 7.606029999999999625e+00 5.545919999999999739e+00 3.088280000000000136e+00 1.957780000000000076e+00 1.000669999999999948e+00 2.861899999999999888e+00 1.959300000000000042e+00 5.306670000000000442e+00 1.410919999999999952e+00 4.629579999999999806e+00 8.172300000000000120e-01 1.243919999999999915e+00 4.786760000000000126e+00 5.223460000000000214e+00 6.044459999999999944e+00 7.519689999999999763e+00 9.685500000000000220e-01 6.035739999999999661e+00 7.538619999999999877e+00 5.319650000000000212e+00 4.878639999999999866e+00 6.344149999999999956e+00 2.857159999999999922e+00 1.434569999999999901e+00 7.798399999999999777e-01 9.720699999999999896e-01 1.333879999999999955e+00 9.275999999999999801e-01 5.434689999999999799e+00 6.372370000000000090e+00 3.698659999999999837e+00 9.973699999999999788e-01 6.170119999999999827e+00 3.783319999999999794e+00 5.359469999999999956e+00 4.552220000000000155e+00 6.415390000000000370e+00 9.076199999999999823e-01 4.410459999999999603e+00 6.506829999999999892e+00 5.578660000000000174e+00 4.666470000000000340e+00 1.019050000000000011e+00 9.214799999999999658e-01 4.587839999999999918e+00 1.022489999999999899e+00 5.315450000000000230e+00 3.109290000000000109e+00 3.780549999999999855e+00 1.296049999999999924e+00 2.853540000000000187e+00 3.706440000000000179e+00 5.384380000000000166e+00 1.265900000000000025e+00 6.414869999999999628e+00 1.141420000000000101e+00 1.118880000000000097e+00 6.676619999999999777e+00 5.386999999999999567e+00 6.324460000000000193e+00 1.855290000000000106e+00 3.347080000000000055e+00 5.953260000000000218e+00 2.006580000000000030e+00 7.462909999999999933e+00 4.617119999999999891e+00 4.663059999999999761e+00 3.437209999999999877e+00 4.387240000000000251e+00 4.357000000000000206e+00 7.379220000000000113e+00 2.649799999999999933e+00 7.551529999999999632e+00 3.209779999999999855e+00 2.568639999999999812e+00 7.393169999999999575e+00 7.253680000000000128e+00 3.013110000000000177e+00 1.968890000000000029e+00 3.043229999999999880e+00 2.740229999999999944e+00 1.938569999999999904e+00 7.420709999999999695e+00 1.381329999999999947e+00 4.689040000000000319e+00 3.364559999999999995e+00 1.116840000000000055e+00 4.741670000000000051e+00 7.425220000000000375e+00 6.234479999999999578e+00 7.727599999999999802e+00 2.933079999999999909e+00 5.943999999999999950e+00 7.451699999999999768e+00 7.357700000000000351e+00
1.598710000000000075e+00 8.912200000000000122e-01 3.169550000000000090e+00 1.626100000000000101e+00 8.413100000000000023e-01 7.489349999999999952e+00 6.644929999999999559e+00 3.668540000000000134e+00 3.201179999999999914e+00 6.658800000000000274e+00 3.729499999999999815e+00 7.404200000000000337e+00 4.876459999999999795e+00 6.980039999999999800e+00 2.704000000000000181e+00 4.919220000000000148e+00 6.510589999999999655e+00 7.463390000000000413e+00 4.969000000000000306e+00 9.033099999999999463e-01 3.205859999999999932e+00 5.014459999999999695e+00 8.874100000000000321e-01 7.383670000000000400e+00 3.226690000000000058e+00 3.619819999999999816e+00 3.189740000000000020e+00 3.245200000000000085e+00 3.594780000000000086e+00 7.419179999999999886e+00 1.591550000000000020e+00 6.524060000000000414e+00 3.173999999999999932e+00 1.465019999999999989e+00 6.412149999999999572e+00 7.276089999999999947e+00 6.601270000000000415e+00 1.826570000000000027e+00 1.033109999999999973e+00 6.603979999999999961e+00 1.717240000000000100e+00 5.305990000000000428e+00 4.986019999999999897e+00 4.651239999999999597e+00 1.046159999999999979e+00 4.985949999999999882e+00 4.592050000000000409e+00 5.419749999999999623e+00 3.225229999999999819e+00 7.412119999999999820e+00 9.989099999999999646e-01 3.295910000000000117e+00 7.338189999999999991e+00 5.197070000000000078e+00 3.344710000000000072e+00 1.689710000000000045e+00 9.694800000000000084e-01 3.271560000000000024e+00 1.834209999999999896e+00 5.252629999999999910e+00 1.745859999999999967e+00 4.568570000000000242e+00 1.021069999999999922e+00 1.573369999999999935e+00 4.712930000000000064e+00 5.203450000000000131e+00 6.658190000000000275e+00 7.346110000000000362e+00 9.685700000000000420e-01 6.488299999999999734e+00 7.439969999999999750e+00 5.231840000000000046e+00 5.388410000000000366e+00 6.062490000000000379e+00 3.497910000000000075e+00 1.646369999999999889e+00 8.286999999999999922e-01 1.117550000000000043e+00 1.670269999999999921e+00 7.937699999999999756e-01 5.429190000000000182e+00 6.561099999999999710e+00 3.735230000000000050e+00 1.004440000000000000e+00 6.581629999999999647e+00 3.691030000000000033e+00 5.332889999999999908e+00 4.991789999999999949e+00 6.528660000000000352e+00 8.703499999999999570e-01 4.962310000000000443e+00 6.391009999999999636e+00 5.482140000000000235e+00 4.942800000000000082e+00 8.460299999999999487e-01 1.255370000000000097e+00 4.885080000000000311e+00 8.145900000000000363e-01 5.362989999999999924e+00 3.331630000000000091e+00 3.625039999999999818e+00 9.915199999999999569e-01 3.309829999999999828e+00 3.734070000000000000e+00 5.252399999999999736e+00 1.543120000000000047e+00 6.471569999999999823e+00 1.156859999999999999e+00 1.512250000000000094e+00 6.500670000000000393e+00 5.346099999999999852e+00 6.638279999999999959e+00 1.809770000000000101e+00 3.358099999999999863e+00 6.630939999999999834e+00 1.784080000000000110e+00 7.389520000000000088e+00 4.876809999999999867e+00 4.493159999999999599e+00 3.046199999999999797e+00 4.842209999999999681e+00 4.542139999999999844e+00 7.308760000000000367e+00 3.136499999999999844e+00 7.488400000000000389e+00 3.106910000000000061e+00 3.263170000000000126e+00 7.405499999999999972e+00 7.412659999999999805e+00 3.292279999999999873e+00 1.714499999999999913e+00 3.123629999999999907e+00 3.248689999999999856e+00 1.696800000000000086e+00 7.404309999999999725e+00 1.603069999999999995e+00 4.605059999999999931e+00 3.299549999999999983e+00 1.667170000000000041e+00 4.615470000000000184e+00 7.532169999999999810e+00 6.532440000000000246e+00 7.452840000000000131e+00 3.394480000000000164e+00 6.567770000000000330e+00 7.501540000000000319e+00 7.514380000000000059e+00
1.629529999999999923e+00 1.004960000000000075e+00 3.103559999999999874e+00 1.659040000000000070e+00 1.044359999999999955e+00 7.356919999999999682e+00 6.571900000000000297e+00 3.657989999999999853e+00 3.134729999999999794e+00 6.485809999999999853e+00 3.869969999999999910e+00 7.412300000000000111e+00 5.203380000000000116e+00 7.217469999999999608e+00 3.463210000000000122e+00 5.095769999999999911e+00 6.715900000000000425e+00 7.460569999999999702e+00 4.960329999999999906e+00 8.325599999999999667e-01 3.259759999999999991e+00 4.951830000000000176e+00 9.735800000000000010e-01 7.458709999999999951e+00 3.265219999999999789e+00 3.734300000000000175e+00 3.120559999999999778e+00 3.254329999999999945e+00 3.802169999999999828e+00 7.255910000000000082e+00 2.073339999999999961e+00 6.508610000000000007e+00 3.289280000000000204e+00 1.967859999999999943e+00 6.641219999999999679e+00 7.385180000000000078e+00 6.498470000000000191e+00 1.941789999999999905e+00 1.006820000000000048e+00 6.508469999999999978e+00 1.935629999999999962e+00 5.278669999999999973e+00 4.822460000000000413e+00 4.726420000000000066e+00 1.004629999999999912e+00 4.866869999999999585e+00 4.800080000000000346e+00 5.186270000000000380e+00 3.528529999999999944e+00 7.647509999999999586e+00 1.156239999999999934e+00 3.446979999999999933e+00 7.663929999999999687e+00 5.297030000000000349e+00 3.365660000000000096e+00 1.801690000000000014e+00 9.582800000000000207e-01 3.338620000000000143e+00 1.806610000000000049e+00 5.224380000000000024e+00 1.648050000000000015e+00 4.687719999999999665e+00 9.050000000000000266e-01 1.641150000000000109e+00 4.719769999999999577e+00 5.339999999999999858e+00 6.786299999999999777e+00 7.568730000000000402e+00 9.989500000000000046e-01 6.835139999999999993e+00 7.581540000000000390e+00 5.491970000000000240e+00 5.842970000000000219e+00 6.114630000000000010e+00 2.875449999999999839e+00 1.676730000000000054e+00 9.783399999999999874e-01 8.704399999999999915e-01 1.656619999999999981e+00 9.443500000000000227e-01 5.214629999999999654e+00 6.496590000000000309e+00 3.764909999999999979e+00 9.407600000000000406e-01 6.479739999999999611e+00 3.839649999999999785e+00 5.368439999999999657e+00 5.147179999999999644e+00 6.638349999999999973e+00 9.819499999999999895e-01 5.097809999999999953e+00 6.706100000000000172e+00 5.457849999999999646e+00 4.920440000000000147e+00 8.467000000000000082e-01 9.830999999999999739e-01 4.943710000000000271e+00 8.913299999999999557e-01 5.189610000000000056e+00 3.329619999999999802e+00 3.689560000000000173e+00 1.087760000000000060e+00 3.264769999999999950e+00 3.869200000000000195e+00 5.295849999999999724e+00 1.939349999999999907e+00 6.579939999999999678e+00 1.048329999999999984e+00 1.896220000000000017e+00 6.587159999999999904e+00 5.264409999999999812e+00 6.552699999999999747e+00 1.867019999999999902e+00 3.109230000000000160e+00 6.464920000000000222e+00 2.022959999999999869e+00 7.322790000000000354e+00 4.956330000000000346e+00 4.551969999999999850e+00 3.065560000000000063e+00 4.913160000000000416e+00 4.839800000000000324e+00 7.334439999999999849e+00 3.455709999999999837e+00 7.754830000000000112e+00 3.125239999999999796e+00 3.483929999999999971e+00 7.720240000000000435e+00 7.289799999999999613e+00 3.320840000000000014e+00 1.827509999999999968e+00 3.163190000000000168e+00 3.422969999999999846e+00 1.972909999999999942e+00 7.294950000000000045e+00 1.590189999999999992e+00 4.726460000000000328e+00 3.043950000000000156e+00 1.733670000000000044e+00 4.768080000000000318e+00 7.420749999999999957e+00 6.929590000000000138e+00 7.538780000000000037e+00 3.235780000000000101e+00 6.882719999999999949e+00 7.728229999999999933e+00 7.348790000000000155e+00
1.525339999999999918e+00 1.042569999999999997e+00 3.148070000000000146e+00 1.640379999999999949e+00 8.630400000000000293e-01 7.368719999999999715e+00 6.482070000000000221e+00 3.714249999999999829e+00 3.317889999999999784e+00 6.413090000000000401e+00 3.554689999999999905e+00 7.397850000000000037e+00 4.759369999999999656e+00 6.619469999999999743e+00 3.338449999999999918e+00 4.940089999999999648e+00 6.429000000000000270e+00 7.368719999999999715e+00 4.827280000000000015e+00 1.041360000000000063e+00 3.338649999999999896e+00 4.727229999999999599e+00 8.589700000000000113e-01 7.340150000000000396e+00 3.037380000000000191e+00 3.777379999999999960e+00 3.029009999999999980e+00 3.186939999999999884e+00 3.604249999999999954e+00 7.507740000000000080e+00 1.925890000000000102e+00 6.563780000000000392e+00 3.171539999999999804e+00 1.797269999999999923e+00 6.481399999999999828e+00 7.532700000000000173e+00 6.478189999999999671e+00 1.855930000000000080e+00 9.764699999999999491e-01 6.417480000000000295e+00 1.831220000000000070e+00 5.297640000000000349e+00 4.824259999999999771e+00 4.693109999999999893e+00 1.055970000000000075e+00 4.823959999999999582e+00 4.593910000000000160e+00 5.256929999999999659e+00 3.396860000000000213e+00 7.534010000000000318e+00 1.076330000000000009e+00 3.349569999999999936e+00 7.439440000000000275e+00 5.359729999999999883e+00 3.236730000000000107e+00 1.887129999999999974e+00 1.055960000000000010e+00 3.185830000000000162e+00 1.841709999999999958e+00 5.176389999999999603e+00 1.492420000000000080e+00 4.686060000000000336e+00 1.047560000000000047e+00 1.628120000000000012e+00 4.686180000000000234e+00 5.605000000000000426e+00 6.537160000000000082e+00 7.557970000000000077e+00 1.080039999999999889e+00 6.615109999999999602e+00 7.431250000000000355e+00 5.237549999999999706e+00 5.969549999999999912e+00 5.963070000000000093e+00 3.200629999999999864e+00 1.635680000000000023e+00 9.717900000000000427e-01 9.656299999999999883e-01 1.649839999999999973e+00 7.895799999999999486e-01 5.202720000000000233e+00 6.448489999999999611e+00 3.706760000000000055e+00 1.054820000000000091e+00 6.527910000000000323e+00 3.632400000000000073e+00 5.495659999999999989e+00 5.044679999999999609e+00 6.505690000000000417e+00 8.743699999999999806e-01 4.876909999999999634e+00 6.431910000000000238e+00 5.274930000000000341e+00 4.786880000000000024e+00 8.706500000000000350e-01 1.032550000000000079e+00 4.820669999999999789e+00 8.474000000000000421e-01 5.235490000000000421e+00 3.186110000000000220e+00 3.726259999999999906e+00 1.025150000000000006e+00 3.010540000000000216e+00 3.675300000000000011e+00 5.078039999999999665e+00 1.738650000000000029e+00 6.594269999999999854e+00 1.221640000000000059e+00 1.819669999999999899e+00 6.448299999999999699e+00 5.196189999999999642e+00 6.461899999999999977e+00 2.026980000000000004e+00 3.474200000000000177e+00 6.496699999999999697e+00 1.736320000000000086e+00 7.340360000000000440e+00 4.876290000000000013e+00 4.499080000000000190e+00 3.205830000000000179e+00 4.834170000000000300e+00 4.523819999999999730e+00 7.359060000000000379e+00 3.420389999999999819e+00 7.606440000000000090e+00 3.097820000000000018e+00 3.347539999999999960e+00 7.377869999999999706e+00 7.466499999999999915e+00 3.181119999999999948e+00 1.871960000000000068e+00 3.076839999999999797e+00 3.210360000000000102e+00 1.800289999999999946e+00 7.264899999999999913e+00 1.498459999999999903e+00 4.820350000000000357e+00 3.003340000000000121e+00 1.650760000000000005e+00 4.654770000000000074e+00 7.631280000000000285e+00 6.737809999999999633e+00 7.680109999999999992e+00 3.367340000000000000e+00 6.652300000000000324e+00 7.343329999999999913e+00 7.502320000000000100e+00
1.687130000000000019e+00 9.288399999999999990e-01 3.045920000000000183e+00 1.641270000000000007e+00 9.540300000000000447e-01 7.152660000000000018e+00 6.532180000000000319e+00 3.576999999999999957e+00 3.078660000000000174e+00 6.486040000000000028e+00 3.781670000000000087e+00 7.177550000000000097e+00 5.069160000000000110e+00 6.790339999999999598e+00 3.066159999999999997e+00 5.095379999999999576e+00 6.588630000000000209e+00 7.189420000000000144e+00 4.885200000000000209e+00 9.627599999999999492e-01 3.070359999999999978e+00 4.844829999999999970e+00 9.303299999999999903e-01 7.172299999999999898e+00 3.220759999999999845e+00 3.748009999999999842e+00 3.085659999999999847e+00 3.239079999999999959e+00 3.783910000000000107e+00 7.158079999999999998e+00 2.051559999999999828e+00 6.651810000000000223e+00 3.072540000000000049e+00 1.848030000000000062e+00 6.613780000000000214e+00 7.176179999999999559e+00 6.500169999999999781e+00 1.893119999999999914e+00 9.741499999999999604e-01 6.485170000000000101e+00 1.892989999999999950e+00 5.168709999999999916e+00 4.887430000000000163e+00 4.730159999999999698e+00 1.056920000000000082e+00 4.884290000000000020e+00 4.738100000000000200e+00 5.100789999999999935e+00 3.519569999999999865e+00 7.633420000000000094e+00 1.001390000000000002e+00 3.513389999999999791e+00 7.629260000000000375e+00 5.151609999999999800e+00 3.294589999999999907e+00 1.935009999999999897e+00 1.031789999999999985e+00 3.252670000000000172e+00 1.897000000000000020e+00 5.129480000000000040e+00 1.688180000000000014e+00 4.776530000000000165e+00 9.903499999999999526e-01 1.645999999999999908e+00 4.744290000000000340e+00 5.141650000000000276e+00 6.724960000000000271e+00 7.616249999999999964e+00 1.045179999999999998e+00 6.706649999999999778e+00 7.631039999999999601e+00 5.167650000000000077e+00 6.165709999999999802e+00 5.943220000000000169e+00 3.094359999999999999e+00 1.661659999999999915e+00 9.209399999999999809e-01 1.001409999999999911e+00 1.624719999999999942e+00 9.233299999999999841e-01 5.150280000000000413e+00 6.538820000000000299e+00 3.771549999999999958e+00 1.052380000000000093e+00 6.499299999999999855e+00 3.769969999999999821e+00 5.108189999999999564e+00 5.121089999999999698e+00 6.615269999999999762e+00 9.660600000000000298e-01 5.117680000000000007e+00 6.609280000000000044e+00 5.213409999999999656e+00 4.878849999999999909e+00 9.476099999999999524e-01 1.020380000000000065e+00 4.872469999999999857e+00 9.593699999999999450e-01 5.150030000000000108e+00 3.253719999999999946e+00 3.805670000000000108e+00 1.084480000000000111e+00 3.261359999999999815e+00 3.799729999999999830e+00 5.107359999999999900e+00 1.939519999999999911e+00 6.622799999999999798e+00 1.030920000000000059e+00 1.885019999999999918e+00 6.635229999999999961e+00 5.125020000000000131e+00 6.525070000000000370e+00 1.808200000000000029e+00 3.051740000000000119e+00 6.450759999999999827e+00 1.896179999999999977e+00 7.190260000000000318e+00 4.905000000000000249e+00 4.577779999999999738e+00 3.056290000000000173e+00 4.865109999999999602e+00 4.705639999999999823e+00 7.190310000000000201e+00 3.527489999999999792e+00 7.660619999999999763e+00 3.098869999999999791e+00 3.441689999999999916e+00 7.637340000000000018e+00 7.174400000000000333e+00 3.231199999999999850e+00 1.921280000000000099e+00 3.100680000000000103e+00 3.242100000000000204e+00 1.939249999999999918e+00 7.170149999999999579e+00 1.573879999999999946e+00 4.809980000000000366e+00 3.094349999999999934e+00 1.646260000000000057e+00 4.759789999999999743e+00 7.146600000000000286e+00 6.849770000000000358e+00 7.664270000000000138e+00 3.072769999999999779e+00 6.697729999999999961e+00 7.605150000000000077e+00 7.195999999999999730e+00