1.148096000000000005e+00 1.761657000000000028e+00 8.856399999999999828e-01 -7.804499999999999771e-01 2.375782000000000060e+00 -3.143083999999999989e+00 -6.237000000000000183e-02 -3.150479999999999947e-01 -9.206320000000000059e-01 6.494800000000000573e-02 2.260669999999999902e-01 7.133009999999999629e-01 -2.934623000000000204e+00 6.655699999999999950e-01 1.101710000000000050e-01 1.059469999999999995e-01 -3.009890000000000065e-01 -2.165302000000000060e+00 -1.419947000000000070e+00 3.992029999999999745e-01 -4.149470000000000103e-01 1.553630000000000011e-01 -1.975975000000000037e+00 -1.537296999999999914e+00 -1.348535000000000039e+00 6.035359999999999614e-01 7.791350000000000220e-01 1.235409999999999980e-01 2.223771000000000164e+00 7.848049999999999748e-01 -2.278132999999999964e+00 -3.453289999999999971e-01 -6.956339999999999746e-01 -6.836539999999999839e-01 2.033980000000000121e+00 -9.214729999999999865e-01 7.270219999999999461e-01 7.517890000000000406e-01 -1.870920000000000083e-01 -7.719099999999999573e-02 -2.440167000000000197e+00 9.274719999999999631e-01 7.429219999999999713e-01 -5.288180000000000103e-01 1.113950999999999913e+00 1.300907999999999953e+00 -2.513250000000000206e-01 -1.023644999999999916e+00 9.101960000000000051e-01 7.145040000000000280e-01 -2.098369999999999957e-01 4.272020000000000262e-01 1.084238999999999953e+00 1.788983999999999908e+00 8.139579999999999593e-01 -1.654949000000000003e+00 -9.860330000000000483e-01 -1.451099999999999890e-01 -8.191749999999999865e-01 -1.130349999999999966e-01 -1.622065000000000090e+00 4.459699999999999775e-02 1.565169000000000032e+00 6.988569999999999505e-01 -7.590299999999999825e-01 -2.227629999999999888e-01 3.070088000000000150e+00 9.199739999999999585e-01 1.448153999999999941e+00 1.548577000000000092e+00 5.880999999999999561e-01 -2.315323999999999938e+00 7.937079999999999691e-01 -1.833928000000000003e+00 -3.692010000000000014e-01 -7.900160000000000515e-01 8.895960000000000534e-01 3.353492999999999835e+00 -1.752859999999999974e-01 9.827360000000000539e-01 -9.960059999999999469e-01 -1.415067000000000075e+00 -1.291995000000000005e+00 9.807029999999999914e-01 -1.706304999999999961e+00 1.780607999999999969e+00 -1.294124999999999970e+00 -2.156746000000000052e+00 -7.414659999999999584e-01 5.618499999999999883e-02 -1.661242000000000107e+00 -1.341854000000000102e+00 2.062612000000000112e+00 5.012100000000000444e-01 6.755740000000000078e-01 9.690729999999999622e-01 1.388630999999999949e+00 1.421680999999999973e+00 -4.863970000000000238e-01 1.138354000000000088e+00 5.394999999999999796e-01 -8.262249999999999872e-01 -9.287330000000000307e-01 5.896620000000000195e-01 6.312759999999999483e-01 -1.289225999999999983e+00 -1.226347999999999994e+00 -3.323119999999999963e-01 5.023999999999999994e-02 -1.722140000000000060e-01 -1.266424999999999912e+00 1.986620000000000053e+00 -5.830330000000000235e-01 -7.696060000000000123e-01 -2.088899999999999924e-01 -2.377317999999999820e+00 1.173240000000000061e+00 1.477459999999999885e-01 -1.922441999999999984e+00 8.449790000000000356e-01 -1.294990000000000085e+00 6.291600000000000525e-01 2.885909999999999864e-01 -3.466259999999999897e-01 9.931910000000000460e-01 -8.198760000000000492e-01 2.835940000000000127e-01 -3.393940000000000179e+00 2.158589999999999953e-01 -2.116605999999999987e+00 -1.164835999999999983e+00 3.456200000000000244e-02 -5.040780000000000260e-01 -3.416819999999999857e-01 -4.648869999999999947e-01 1.625154999999999905e+00 1.651577999999999991e+00 7.992479999999999585e-01 2.139162999999999926e+00 -6.355849999999999556e-01 -2.220076999999999856e+00 4.220498000000000083e+00 3.073601000000000028e+00 -1.367420000000000024e-01 -1.666590000000000016e-01 -1.202212000000000058e+00 3.311376000000000097e+00
-1.845072000000000045e+00 -1.013933999999999891e+00 6.527359999999999829e-01 3.097400000000000153e-02 -1.317544000000000048e+00 -1.564780000000000060e-01 4.293770000000000087e-01 -8.809999999999999776e-02 1.002593000000000067e+00 8.589529999999999665e-01 -1.142169999999999991e-01 1.263479000000000019e+00 2.941040000000000099e+00 2.689353000000000105e+00 -3.891399999999999720e-02 8.113029999999999964e-01 -1.426882999999999901e+00 1.583509999999999918e-01 5.361070000000000002e-01 1.538046999999999942e+00 -1.687150000000000039e-01 5.390690000000000204e-01 2.385349999999999970e-01 -8.477630000000000443e-01 6.151419999999999666e-01 -3.206339999999999746e-01 1.583255000000000079e+00 1.651890000000000025e-01 4.583889999999999909e-01 6.108529999999999793e-01 -1.882263999999999937e+00 3.234000000000000069e-02 3.404700000000000087e-02 1.100840000000000013e-01 7.833369999999999500e-01 7.258470000000000200e-01 -9.416769999999999863e-01 -5.744059999999999722e-01 -3.524385000000000101e+00 1.023899999999999984e-02 6.250160000000000160e-01 9.945249999999999924e-01 -1.635772000000000004e+00 1.518091999999999997e+00 5.000339999999999785e-01 -2.909600000000000034e-02 1.063223999999999947e+00 3.820939999999999892e-01 8.231020000000000003e-01 -2.356574000000000169e+00 7.635579999999999590e-01 -3.366042999999999896e+00 1.313635000000000108e+00 2.209200000000000053e-02 2.925974000000000075e+00 2.607562999999999853e+00 3.322479999999999878e-01 -4.014000000000000207e-02 7.292650000000000521e-01 2.121319999999999872e-01 6.591810000000000169e-01 6.825999999999999845e-01 4.724880000000000191e-01 -2.997000000000000098e-03 1.885139999999999871e-01 2.754860000000000086e-01 -1.310267000000000071e+00 -7.235899999999999554e-01 -4.647249999999999992e-01 -2.208235999999999866e+00 8.240150000000000530e-01 -3.244710000000000094e-01 -2.795139999999999847e-01 -5.800469999999999793e-01 -1.071641999999999983e+00 -9.188410000000000188e-01 6.880380000000000384e-01 4.149699999999999916e-02 1.185945000000000027e+00 1.053347000000000033e+00 -1.080275000000000096e+00 1.666559999999999986e-01 -1.237390999999999908e+00 -1.251600000000000046e+00 1.004146999999999901e+00 -1.239635999999999960e+00 2.636950000000000127e-01 -6.460460000000000091e-01 4.932199999999999918e-01 1.484250999999999987e+00 3.302573000000000203e+00 -1.696989999999999998e+00 1.622981000000000007e+00 -1.002463000000000104e+00 9.385400000000000686e-02 -2.063500000000000056e-02 1.399759999999999893e-01 7.112920000000000353e-01 -6.189029999999999809e-01 -1.720629999999999937e-01 -1.833652000000000060e+00 -1.066092000000000040e+00 -6.113779999999999770e-01 -1.103101000000000109e+00 1.097609999999999975e-01 2.197299999999999809e+00 -2.239190000000000069e-01 -9.351140000000000008e-01 3.048811999999999856e+00 -2.759081999999999812e+00 -1.113880999999999899e+00 2.896150000000000113e-01 -2.167159999999999975e+00 3.170799999999999841e+00 -2.693378000000000050e+00 -8.635760000000000103e-01 -9.465170000000000528e-01 -3.753739999999999855e-01 7.728540000000000409e-01 -1.238436000000000092e+00 -2.940824000000000105e+00 -1.751030000000000086e-01 -1.098797999999999941e+00 -1.041697000000000095e+00 1.288632000000000000e+00 5.743100000000000288e-02 4.658399999999999763e-01 7.768890000000000517e-01 -1.770150000000000057e-01 7.790639999999999787e-01 -1.057509000000000032e+00 -8.758820000000000494e-01 2.345455999999999985e+00 -1.434930000000000094e-01 1.287430999999999992e+00 -2.210399999999999865e-02 3.570110000000000228e-01 4.009079999999999866e-01 -1.427211999999999925e+00 2.780679999999999819e-01 -1.118060000000000054e+00 5.520749999999999824e-01 9.322470000000000478e-01 -2.816580000000000195e-01 -1.540736000000000105e+00 2.791660000000000252e-01 -4.612999999999999913e-03
7.083169999999999744e-01 7.217599999999999572e-01 1.471279000000000003e+00 7.145150000000000112e-01 1.022464999999999957e+00 -1.020386999999999933e+00 -2.311090000000000089e-01 1.140784999999999938e+00 3.248288000000000064e+00 1.405523000000000078e+00 1.541398999999999964e+00 -5.469230000000000480e-01 5.226769999999999472e-01 -8.768719999999999848e-01 -4.619110000000000160e-01 9.426689999999999792e-01 1.281571000000000016e+00 3.995859999999999967e-01 -3.586679000000000173e+00 -5.725569999999999826e-01 -1.674990000000000090e-01 -2.179310000000000136e-01 -1.650698999999999916e+00 9.781809999999999672e-01 1.916650000000000020e-01 3.220910000000000162e-01 7.361020000000000341e-01 -1.544029000000000096e+00 8.593210000000000015e-01 5.102849999999999886e-01 -1.694050000000000056e+00 -5.649790000000000090e-01 1.098629000000000078e+00 -1.694897000000000098e+00 4.839010000000000256e-01 9.895800000000000152e-01 -7.565399999999999903e-02 8.362150000000000416e-01 2.356393000000000182e+00 1.860525999999999902e+00 2.416923000000000155e+00 7.876950000000000340e-01 -2.280828000000000078e+00 5.191519999999999468e-01 7.147299999999999487e-02 -1.461800000000000044e-01 7.540959999999999885e-01 -1.276130000000000042e-01 -2.117634999999999934e+00 4.719140000000000001e-01 -1.356600000000000028e-01 -1.549922999999999940e+00 9.636249999999999538e-01 -1.155032000000000059e+00 -1.087771000000000043e+00 -4.662959999999999883e-01 -1.716660999999999992e+00 -2.364399999999999835e-02 -9.932599999999999763e-02 -1.768569999999999864e-01 5.544149999999999912e-01 1.077309999999999990e+00 -1.691670000000000007e+00 -2.832459999999999978e-01 9.349100000000000465e-02 7.124070000000000125e-01 -1.655679999999999930e-01 5.801140000000000185e-01 -9.276720000000000521e-01 -1.853488000000000024e+00 -5.073699999999999877e-01 2.693659999999999943e-01 5.612799999999999734e-02 -8.072070000000000078e-01 1.388233999999999968e+00 -1.081220000000000070e+00 2.201064999999999827e+00 3.192699000000000176e+00 1.854815000000000103e+00 -3.936950000000000172e-01 -1.616869999999999974e-01 3.287820000000000187e-01 -7.696849999999999525e-01 -3.892987999999999893e+00 1.074340000000000017e-01 1.101798000000000055e+00 -3.494079999999999964e-01 1.311530000000000085e+00 -2.712819999999999787e+00 -1.107800000000000035e-01 2.019998999999999878e+00 -1.866978000000000026e+00 -1.813517000000000046e+00 1.458990000000000009e+00 1.226799999999999891e+00 -5.115950000000000220e-01 -2.601745000000000196e+00 1.599829999999999863e-01 7.040729999999999489e-01 1.480367999999999906e+00 -1.087631999999999932e+00 2.083170000000000022e-01 -1.870581999999999967e+00 -1.959248000000000101e+00 -9.158699999999999619e-01 6.222990000000000466e-01 8.262840000000000185e-01 1.297099000000000002e+00 4.079960000000000253e-01 -1.724272000000000027e+00 6.686699999999999589e-02 2.746836000000000055e+00 -1.375618999999999925e+00 5.999100000000000266e-02 -1.636843000000000048e+00 -1.169159999999999977e+00 -8.825380000000000447e-01 5.131700000000000150e-02 3.449599999999999889e-02 7.645899999999999919e-01 2.165721000000000007e+00 3.684180000000000232e-01 6.086439999999999628e-01 -1.047501000000000015e+00 7.788580000000000503e-01 -7.463920000000000554e-01 7.876819999999999933e-01 -1.579425999999999997e+00 -1.091591999999999896e+00 1.176740000000000008e-01 1.350427999999999962e+00 -1.546208999999999945e+00 2.085541999999999785e+00 -1.179872999999999950e+00 -1.502350999999999992e+00 7.806100000000000261e-01 2.553119999999999834e-01 2.001700000000000007e-02 -1.144101000000000035e+00 -7.401699999999999946e-02 -5.027449999999999974e-01 1.243625999999999898e+00 -1.315461999999999909e+00 -2.377630000000000021e-01 1.406970999999999972e+00 -6.363849999999999785e-01 4.535239999999999827e-01
1.127699999999999925e+00 -9.374259999999999815e-01 -5.111909999999999510e-01 -1.747784999999999922e+00 -1.624420000000000031e-01 -3.827926000000000162e+00 -4.346439999999999748e-01 2.153093000000000146e+00 -8.339050000000000074e-01 -2.593280000000000030e-01 -6.460699999999999776e-02 -1.832745999999999986e+00 -6.228810000000000180e-01 8.334099999999999842e-01 -1.204318999999999917e+00 -2.002658999999999967e+00 -1.529809999999999892e+00 -6.954299999999999926e-01 -8.328499999999999792e-02 -8.898190000000000266e-01 8.926560000000000050e-01 -4.260800000000000143e-01 -6.867349999999999843e-01 -1.689923000000000064e+00 -3.279150000000000120e-01 1.359174000000000104e+00 -8.030359999999999721e-01 1.286494000000000026e+00 -1.745662000000000047e+00 -1.285277000000000003e+00 -8.026140000000000496e-01 -2.884132999999999836e+00 -3.205890000000000128e-01 6.435419999999999474e-01 7.983270000000000088e-01 2.401899999999999868e-01 -1.871770000000000100e-01 -3.893599999999999839e-01 6.378890000000000393e-01 -1.515638000000000041e+00 -1.154787000000000008e+00 1.043887000000000009e+00 -1.049790000000000001e+00 1.014374000000000109e+00 -1.325410999999999895e+00 -2.097255000000000091e+00 2.488379000000000119e+00 2.892418000000000156e+00 -1.061236000000000068e+00 -3.782265999999999906e+00 -6.741580000000000350e-01 -4.577840000000000242e-01 -1.901756999999999920e+00 -2.049100000000000144e+00 -4.070150000000000157e-01 -2.077320000000000000e-01 1.603703000000000101e+00 1.131679000000000102e+00 -2.277276000000000078e+00 1.220358999999999972e+00 2.514046000000000003e+00 1.102138000000000062e+00 2.917682000000000109e+00 9.769409999999999483e-01 2.444600000000000106e-01 1.920654000000000083e+00 2.959900999999999893e+00 4.032919999999999838e-01 5.786800000000000277e-02 -2.180074999999999985e+00 9.741720000000000379e-01 8.606460000000000221e-01 1.235948999999999964e+00 5.754759999999999875e-01 4.109570000000000167e-01 7.140469999999999873e-01 3.090250999999999859e+00 3.293880000000000141e-01 5.595639999999999503e-01 1.618811000000000000e+00 -1.028745999999999938e+00 -6.282309999999999839e-01 -1.134665000000000035e+00 1.593072000000000044e+00 2.048220999999999847e+00 -1.594346000000000041e+00 -9.307919999999999527e-01 3.184250000000000136e-01 6.325939999999999896e-01 7.380750000000000366e-01 -4.372360000000000135e-01 7.212499999999999467e-02 -9.616240000000000343e-01 1.254540999999999906e+00 -3.192570000000000130e-01 -8.283699999999999397e-02 -1.145845000000000002e+00 -7.743899999999999395e-02 7.234100000000000252e-02 -1.047169000000000016e+00 1.767630000000000035e-01 -1.767792999999999948e+00 -7.151049999999999907e-01 1.669364999999999988e+00 -4.934569999999999790e-01 6.426560000000000050e-01 2.166338000000000097e+00 -4.489369999999999750e-01 6.270759999999999668e-01 -1.555646000000000084e+00 -1.598084000000000060e+00 -6.865630000000000344e-01 9.349880000000000413e-01 -9.190150000000000263e-01 2.196254000000000151e+00 -2.994118999999999975e+00 8.352009999999999712e-01 1.435551000000000021e+00 -2.230828999999999951e+00 -1.448909000000000002e+00 -8.122779999999999445e-01 3.493729999999999780e+00 7.690280000000000449e-01 2.493574999999999875e+00 1.978707999999999911e+00 -4.582849999999999979e-01 1.934927000000000064e+00 1.791655999999999915e+00 4.172514999999999752e+00 -7.881350000000000300e-01 -2.354016000000000108e+00 7.447829999999999728e-01 1.951080000000000036e-01 -2.248500000000000151e-02 1.004415000000000058e+00 -1.300462999999999925e+00 6.502850000000000019e-01 -3.372450000000000170e-01 3.523299999999999765e-01 -5.775249999999999551e-01 8.161199999999999566e-01 -2.345715000000000217e+00 -1.445108999999999977e+00 8.828999999999999349e-02 -1.078624000000000027e+00 2.697341000000000211e+00 1.666595999999999966e+00
7.789859999999999562e-01 4.138669999999999849e-01 -5.458429999999999671e-01 4.712160000000000237e-01 -4.055759999999999921e-01 -1.735675000000000079e+00 -1.751189000000000107e+00 -7.267580000000000151e-01 1.776799999999999907e-02 -1.437116999999999978e+00 -1.199891999999999959e+00 -7.064199999999999646e-02 -1.776672000000000029e+00 1.883868000000000098e+00 -7.284110000000000307e-01 -1.910429999999999906e-01 -5.776189999999999936e-01 -1.205904000000000087e+00 4.392650000000000166e-01 3.718350000000000266e-01 -3.210000000000000075e-01 -1.505513000000000101e+00 3.016730000000000245e-01 -6.840749999999999886e-01 1.110908999999999924e+00 4.837119999999999753e-01 -2.661250000000000004e-01 4.164729999999999821e-01 3.320730000000000071e-01 -1.228069999999999995e-01 -4.008840000000000181e-01 -2.385359999999999980e-01 -4.854109999999999814e-01 2.008430000000000160e+00 1.486858999999999931e+00 4.679719999999999991e-01 -3.698739999999999806e-01 -1.310000000000000129e-04 -2.469490000000000018e-01 1.124570000000000014e-01 7.554889999999999661e-01 5.504869999999999486e-01 -1.510227999999999904e+00 -2.828160000000000118e-01 3.018819999999999837e-01 -1.635216999999999921e+00 -1.387723000000000040e+00 2.278969999999999885e-01 -1.157947999999999977e+00 -5.300479999999999636e-01 -1.243768999999999902e+00 1.030159999999999965e-01 -1.380629999999999913e-01 1.017741999999999924e+00 -7.400710000000000344e-01 1.126684999999999937e+00 1.112219000000000069e+00 -7.226399999999999491e-02 -9.950240000000000196e-01 8.707110000000000127e-01 -1.629126000000000074e+00 1.086729000000000056e+00 1.402029999999999943e-01 1.337626999999999899e+00 -2.454921000000000131e+00 4.898080000000000211e-01 -1.962377999999999956e+00 2.344491999999999798e+00 -4.942880000000000051e-01 4.440169999999999950e-01 -8.229999999999999816e-02 1.971440999999999999e+00 3.652600000000000291e-02 -1.616443000000000074e+00 2.041754000000000069e+00 -1.062229000000000090e+00 1.409788000000000041e+00 -4.407179999999999986e-01 1.248559999999999948e-01 8.012899999999999467e-01 -1.411764999999999937e+00 1.850772000000000084e+00 -1.402628999999999904e+00 2.590299999999999825e-01 1.034153000000000100e+00 -3.561259999999999981e-01 -4.925399999999999917e-02 -1.671736000000000111e+00 2.533079999999999776e-01 7.029600000000000293e-01 -1.949869999999999937e-01 1.494310999999999945e+00 -1.174916000000000071e+00 2.172114999999999796e+00 9.627900000000000347e-02 -9.681859999999999911e-01 5.124109999999999498e-01 2.220638000000000112e+00 1.631309999999999982e-01 -2.475519999999999943e-01 1.468480000000000063e-01 1.031650000000000067e-01 -1.218169999999999975e+00 -8.091230000000000366e-01 4.948000000000000315e-02 2.805340999999999863e+00 -8.425470000000000459e-01 2.438970000000000027e-01 1.108672000000000102e+00 4.455720000000000236e-01 -2.187000000000000142e-03 -4.828259999999999774e-01 4.468530000000000002e-01 -1.083096000000000059e+00 -5.672120000000000495e-01 6.596180000000000376e-01 1.077825000000000033e+00 1.074584999999999901e+00 -3.177452000000000165e+00 -4.914189999999999947e-01 1.803735000000000088e+00 -3.354869999999999797e-01 1.484099000000000057e+00 4.271820000000000062e-01 -1.160120000000000040e-01 3.968430000000000013e-01 -1.799284000000000106e+00 -1.258656999999999915e+00 1.026264999999999983e+00 -7.768469999999999542e-01 6.653639999999999555e-01 1.235994999999999955e+00 1.629280000000000062e+00 7.734579999999999789e-01 3.337629999999999764e-01 2.399340000000000084e-01 5.193349999999999911e-01 -9.422939999999999650e-01 -2.667260000000000186e-01 -4.993739999999999846e-01 -3.957789999999999919e-01 1.627329000000000025e+00 4.683579999999999965e-01 -1.059492000000000100e+00 7.578059999999999796e-01 -1.555048999999999904e+00 -1.163320000000000048e-01
1.823404999999999943e+00 -3.898449999999999971e-01 8.882330000000000503e-01 4.241010000000000058e-01 -3.265989999999999727e-01 -4.040190000000000170e-01 -7.905790000000000317e-01 4.817480000000000095e-01 -2.966989999999999905e-01 -4.160840000000000094e-01 -5.097000000000000142e-02 -1.555541000000000063e+00 -1.926498999999999961e+00 -5.018470000000000431e-01 1.871859999999999913e-01 9.002899999999999792e-02 -1.323799999999999977e-02 -1.736455000000000082e+00 7.929570000000000229e-01 1.105096000000000078e+00 -1.251260999999999957e+00 -3.144500000000000073e-02 5.044899999999999940e-01 -1.557585999999999915e+00 6.546699999999999742e-02 -2.075089999999999990e-01 -2.546490000000000142e-01 1.983832999999999958e+00 -7.976999999999999369e-02 5.229810000000000292e-01 -2.061959999999999904e-01 1.194538000000000100e+00 -1.119240999999999930e+00 3.218309999999999782e-01 -9.910900000000000265e-02 5.453820000000000334e-01 -5.927500000000000130e-02 -1.031543000000000099e+00 3.304219999999999935e-01 -3.653790000000000093e-01 3.724629999999999885e-01 6.316589999999999705e-01 9.766380000000000061e-01 2.120199999999999863e-02 -2.458190000000000097e-01 6.829749999999999988e-01 8.942930000000000046e-01 6.736119999999999886e-01 1.808490000000000097e-01 -6.785419999999999785e-01 -2.392779999999999907e-01 4.526830000000000020e-01 -1.013349999999999945e-01 7.370100000000000540e-01 -7.658049999999999580e-01 1.257371999999999934e+00 1.236941999999999986e+00 -4.492769999999999819e-01 1.305538000000000087e+00 3.911560000000000037e-01 1.514323000000000086e+00 6.511479999999999491e-01 2.665408999999999917e+00 1.602800000000000058e-01 8.065099999999999492e-01 -4.023939999999999739e-01 6.283509999999999929e-01 6.976999999999999869e-02 4.879240000000000244e-01 -1.167019999999999946e+00 3.176149999999999807e-01 -1.874937000000000076e+00 -1.445186999999999999e+00 -3.689749999999999974e-01 1.722909999999999997e-01 1.264629999999999921e-01 -4.264199999999999935e-02 1.260993999999999948e+00 2.169230000000000047e-01 1.050100000000000033e+00 5.219799999999999995e-01 -6.277409999999999934e-01 7.413799999999999557e-02 1.037965000000000027e+00 3.169440000000000035e-01 -7.371170000000000222e-01 -1.276594000000000007e+00 4.875700000000000173e-02 -1.791510000000000047e-01 6.203399999999999886e-02 1.301430000000000087e-01 4.806790000000000229e-01 -1.070295999999999914e+00 6.987769999999999815e-01 8.291140000000000176e-01 7.882670000000000510e-01 5.763399999999999773e-02 3.508240000000000247e-01 2.428059999999999941e-01 -1.076910999999999952e+00 -5.650399999999999867e-02 -2.384259999999999990e-01 -1.848460000000000103e-01 -1.639790000000000081e+00 -8.276670000000000416e-01 2.728670000000000262e-01 3.179179999999999784e-01 -7.189839999999999565e-01 1.033171000000000062e+00 -8.154280000000000417e-01 6.022170000000000023e-01 -1.743052000000000046e+00 5.887010000000000298e-01 -1.265999999999999903e-01 7.204159999999999453e-01 -1.317260000000000097e+00 -1.181100000000000066e-01 -2.540069999999999828e-01 -3.373789999999999845e-01 5.848520000000000385e-01 -1.262995000000000090e+00 -5.463219999999999743e-01 7.322760000000000380e-01 6.632419999999999982e-01 -1.098667000000000060e+00 1.167249999999999954e-01 -3.966499999999999887e-02 -3.979079999999999839e-01 3.209339999999999971e-01 -1.419559999999999989e-01 -1.475859999999999950e-01 1.960600000000000120e-01 -1.849415000000000031e+00 -1.079439000000000037e+00 -1.498190000000000077e-01 1.145348999999999950e+00 -3.068130000000000024e-01 7.914870000000000516e-01 -6.701329999999999787e-01 6.397770000000000401e-01 -1.262567999999999913e+00 8.472460000000000546e-01 1.129191999999999974e+00 -8.713049999999999962e-01 -9.021850000000000147e-01 -1.890937000000000090e+00 8.694460000000000521e-01
1.393394000000000021e+00 -2.225769999999999804e+00 5.211160000000000236e-01 9.996089999999999698e-01 -1.434768000000000043e+00 6.999600000000000266e-02 1.076259000000000077e+00 -8.047940000000000094e-01 -1.078591000000000077e+00 4.673889999999999989e-01 1.829898000000000025e+00 7.270050000000000123e-01 1.919764000000000026e+00 -1.068373000000000017e+00 -1.180469999999999992e-01 1.365070999999999923e+00 -9.381699999999999762e-02 6.178150000000000031e-01 5.197030000000000260e-01 -2.252109999999999945e-01 -1.986755000000000049e+00 2.317069000000000045e+00 -1.454665000000000097e+00 1.414739999999999887e-01 1.837159999999999904e+00 -3.097969999999999891e-01 1.771103000000000094e+00 6.192419999999999591e-01 1.096071999999999935e+00 4.647209999999999952e-01 2.591589999999999727e-01 1.457197000000000076e+00 5.188700000000000256e-02 3.925999999999999802e-03 -8.722799999999999998e-02 5.540230000000000432e-01 -2.128871000000000180e+00 -1.139140000000000014e-01 -1.241209999999999952e-01 9.091010000000000479e-01 -1.220155000000000101e+00 1.461370000000000058e+00 1.827070000000000083e-01 -5.744810000000000194e-01 5.923040000000000527e-01 -1.065344000000000069e+00 -1.156500000000000083e+00 2.991179999999999950e-01 4.835559999999999858e-01 -7.081490000000000284e-01 -1.219009999999999955e-01 -2.570040000000000102e-01 -4.156569999999999987e-01 -1.173100000000000011e-02 1.482229999999999936e-01 -1.035814000000000012e+00 1.071962999999999999e+00 -1.985240000000000060e-01 4.023399999999999893e-02 9.521690000000000431e-01 2.031369999999999898e+00 1.784140000000000059e+00 7.311990000000000434e-01 -1.436669999999999892e-01 -2.880900000000000127e-02 -1.772351999999999927e+00 1.036129999999999968e-01 -1.992110000000000047e+00 2.287669999999999981e-01 -4.428570000000000007e-01 -2.778689999999999771e-01 7.370769999999999822e-01 -8.831400000000000361e-01 2.264202000000000048e+00 -9.350749999999999895e-01 2.597999999999999962e-02 -1.730909999999999949e-01 3.749259999999999815e-01 -2.471270000000000133e-01 1.723354999999999970e+00 7.326359999999999539e-01 -2.775882000000000183e+00 -2.146875000000000089e+00 -3.349940000000000140e-01 -1.303501000000000021e+00 2.149172999999999778e+00 -9.217340000000000533e-01 -1.875426000000000037e+00 1.159680000000000016e-01 7.374659999999999549e-01 1.358433999999999919e+00 5.429789999999999894e-01 1.068025000000000002e+00 1.139381999999999895e+00 3.569414000000000087e+00 -6.703900000000000414e-01 -8.006680000000000463e-01 1.267360999999999960e+00 2.108607000000000120e+00 5.054619999999999669e-01 9.152000000000000413e-03 -2.864999999999999838e-02 2.545490000000000030e+00 5.190280000000000449e-01 7.043239999999999501e-01 5.887989999999999613e-01 3.788619999999999766e-01 -1.322427000000000019e+00 -6.645250000000000323e-01 2.587570000000000148e-01 6.317490000000000050e-01 -9.113059999999999494e-01 -3.148779000000000217e+00 -2.182821000000000122e+00 -2.448017999999999805e+00 8.609400000000000386e-02 9.894910000000000094e-01 -1.378506999999999927e+00 8.055569999999999675e-01 1.386409999999999865e-01 -9.201340000000000074e-01 -2.232419999999999960e-01 -2.913760000000000239e-01 -1.982016000000000000e+00 1.286343000000000014e+00 -9.234299999999999731e-01 4.319399999999999906e-01 1.371783999999999892e+00 -5.228150000000000297e-01 -1.946110000000000062e-01 3.900000000000000133e-01 1.634089999999999987e-01 -1.004499999999999976e-01 5.582780000000000520e-01 1.661370000000000069e-01 -3.986359999999999904e-01 -1.369051999999999936e+00 4.497599999999999931e-01 -7.978100000000000469e-02 -7.687110000000000332e-01 -2.742093000000000114e+00 -3.315009999999999901e-01 -2.660004999999999953e+00 -1.429167999999999994e+00 -1.700306000000000095e+00 2.213788000000000089e+00 -1.739807000000000103e+00
-3.810270000000000046e-01 -1.588130000000000097e-01 3.280199999999999783e-01 -3.171700000000000214e-02 -2.289059999999999984e-01 4.787540000000000129e-01 3.457879999999999843e-01 6.884209999999999496e-01 -1.747289999999999954e-01 -2.361010000000000053e-01 1.528900000000000051e-02 5.091099999999999792e-02 2.644300000000000123e-02 -4.493999999999999731e-03 -1.022999999999999951e-02 -4.623720000000000052e-01 2.201069999999999971e-01 -7.988000000000000309e-03 -4.986999999999999766e-02 -1.962309999999999888e-01 1.548559999999999937e-01 -2.657530000000000170e-01 1.126169999999999949e-01 2.361999999999999933e-01 1.226980000000000015e-01 1.090429000000000093e+00 2.296099999999999877e-02 3.754919999999999924e-01 4.118539999999999979e-01 3.646900000000000142e-02 -1.534699999999999953e-02 3.879589999999999983e-01 1.910550000000000026e-01 3.895879999999999899e-01 5.750669999999999948e-01 -2.629700000000000093e-02 1.437080000000000024e-01 -3.740410000000000124e-01 2.215719999999999912e-01 -1.129290000000000016e-01 -2.717620000000000036e-01 -1.646219999999999906e-01 1.395869999999999889e-01 3.552089999999999970e-01 1.227059999999999956e-01 -1.450859999999999927e-01 3.111619999999999941e-01 -1.844590000000000118e-01 2.643949999999999911e-01 -6.382400000000000295e-01 -2.871210000000000151e-01 -6.675899999999999890e-02 -7.189149999999999707e-01 7.604800000000000448e-02 -6.019470000000000098e-01 -3.365980000000000083e-01 -2.204929999999999946e-01 -1.586200000000000110e-01 2.622559999999999891e-01 -1.509389999999999898e-01 -3.778250000000000219e-01 -5.911700000000000288e-02 6.599469999999999503e-01 1.175100000000000033e-01 6.594600000000000461e-01 -4.675309999999999744e-01 3.184219999999999828e-01 -2.445009999999999961e-01 -1.819399999999999906e-01 1.540749999999999897e-01 -4.021910000000000207e-01 -6.687049999999999939e-01 -1.172547000000000006e+00 -1.647329999999999905e-01 1.219530000000000058e-01 5.747740000000000071e-01 9.432859999999999578e-01 -9.979000000000000370e-02 5.477199999999999847e-01 7.759420000000000206e-01 1.747289999999999954e-01 -5.664799999999999697e-02 -1.764529999999999987e-01 -1.280759999999999954e-01 -2.559099999999999916e-02 -4.922290000000000276e-01 -4.096600000000000241e-02 -1.583789999999999920e-01 2.664699999999999847e-01 -1.276940000000000019e-01 -2.286140000000000116e-01 3.304219999999999935e-01 4.049900000000000028e-02 -1.684569999999999956e-01 1.994630000000000014e-01 -5.258700000000000180e-02 -2.792200000000000237e-01 -7.530100000000000682e-02 -6.497200000000000197e-02 1.842949999999999866e-01 -4.743260000000000254e-01 -4.371570000000000178e-01 -1.731399999999999884e-01 -4.348799999999999888e-01 8.068000000000000171e-02 -6.608829999999999982e-01 3.125530000000000252e-01 1.791699999999999959e-01 -1.836550000000000127e-01 2.873600000000000113e-02 -1.186490000000000045e-01 -3.872120000000000006e-01 -5.170299999999999896e-02 1.541250000000000120e-01 2.343659999999999910e-01 1.363959999999999895e-01 -1.502070000000000072e-01 6.595450000000000479e-01 -1.711310000000000053e-01 2.661529999999999729e-01 1.902490000000000014e-01 -1.832400000000000001e-02 1.439499999999999981e-02 -1.678469999999999962e-01 -3.762599999999999972e-02 -8.375100000000000600e-02 5.333620000000000028e-01 -5.152799999999999603e-01 2.512100000000000097e-02 7.946370000000000378e-01 -7.460710000000000397e-01 -1.828559999999999908e-01 5.094599999999999823e-02 -6.022739999999999760e-01 1.316970000000000085e-01 9.818799999999999750e-02 -1.832139999999999880e-01 -5.455999999999999739e-02 -3.031400000000000067e-02 -2.807629999999999848e-01 3.296899999999999831e-01 2.290590000000000126e-01 -1.616440000000000099e-01 3.130299999999999749e-02 1.030120000000000063e-01 1.366610000000000047e-01 -4.269400000000000278e-02