3.934409180703990216e+01 1.152643553140762478e+01 -1.708164872074445562e+00 1.152643553140762478e+01 4.541809065226255626e+01 5.974005431267601196e+00 -1.708164872074445562e+00 5.974005431267601196e+00 3.313984494458156860e+01
1.365958240600507700e+01 -1.472186210489934766e+01 2.183847428321163076e+00 -1.472186210489934766e+01 3.609464078173493018e+00 -3.766977154714763021e+00 2.183847428321163076e+00 -3.766977154714763021e+00 2.122178609478293954e+00
2.260866113914830677e+01 -2.587443252239461922e-01 -6.543221025888339426e+00 -2.587443252239461922e-01 2.445202991991265407e+01 6.102071035124367882e+00 -6.543221025888339426e+00 6.102071035124367882e+00 1.415786878806710369e+01
3.784612783998242946e+01 5.110193966086170825e+00 2.177981294048933236e+01 5.110193966086170825e+00 3.463157699841108439e+01 -4.425845022725408029e+00 2.177981294048933236e+01 -4.425845022725408029e+00 2.298799179468979048e+01
2.605785924799505882e+00 1.404781558416985376e+00 5.441875763033884539e+00 1.404781558416985376e+00 2.490399096069671003e+01 2.749651646437063501e+00 5.441875763033884539e+00 2.749651646437063501e+00 7.374502038678715010e+00
2.420368128986365264e+01 -5.145763198683943607e+00 1.882707684668280812e-01 -5.145763198683943607e+00 1.987963431575504103e+01 3.503996225040613144e+00 1.882707684668280812e-01 3.503996225040613144e+00 8.968386787263842308e+00
3.610186440550064901e+01 -9.449532859455459288e+00 -4.645097221147749700e+00 -9.449532859455459288e+00 4.525530891908905318e+01 2.033869664872012706e+00 -4.645097221147749700e+00 2.033869664872012706e+00 1.259062580367361939e+01
2.429402216113518165e+01 -2.026719015804514079e+00 3.397721800557352179e+00 -2.026719015804514079e+00 2.727264261991889072e+01 3.432589344926337271e-01 3.397721800557352179e+00 3.432589344926337271e-01 9.861559997898895702e+00
3.835235358866926703e+01 -3.546709151867695198e-01 5.453425410399932893e+00 -3.546709151867695198e-01 2.537721496562383194e+01 -3.616635084575665182e+00 5.453425410399932893e+00 -3.616635084575665182e+00 3.330062505482236190e+01
1.168712422154123587e+01 2.461492092615297222e-02 -1.139343560717800052e+01 2.461492092615297222e-02 -6.428346635884044424e+00 1.049704473891056011e+01 -1.139343560717800052e+01 1.049704473891056011e+01 -1.233139080215692296e+00
-2.520042974133998115e+01 2.467530188151016546e+00 7.831203478185236877e-01 2.467530188151016546e+00 -1.758188037241628265e+01 1.426656361158333830e+00 7.831203478185236877e-01 1.426656361158333830e+00 8.839680457062337737e+00
2.182131871294606640e+01 -5.592230088070542227e-01 1.450342393532234375e+00 -5.592230088070542227e-01 2.897784949110253905e+01 3.379769180549646812e+00 1.450342393532234375e+00 3.379769180549646812e+00 1.034589806083041807e+01
2.730322913554182662e+01 -8.044555643028475700e+00 1.376510815409417177e+01 -8.044555643028475700e+00 1.180787197320170456e+01 2.572316105149147436e+00 1.376510815409417177e+01 2.572316105149147436e+00 1.412920290814512825e+01
-3.966897707627508396e+01 1.049492313786366715e+01 -1.675944936919971706e+00 1.049492313786366715e+01 -1.482042499323545037e+01 8.833879836161134591e+00 -1.675944936919971706e+00 8.833879836161134591e+00 -1.879577850501722480e+01
3.321271737503860777e+01 -2.465216922121096221e+00 -3.206109052421881045e-01 -2.465216922121096221e+00 2.784209230389031831e+01 -1.049527936061901007e-01 -3.206109052421881045e-01 -1.049527936061901007e-01 1.609234852669758098e+01
4.779068327943434724e+01 -8.000539628751818455e+00 -5.083911327799010671e+00 -8.000539628751818455e+00 4.582765500415663951e+01 -1.198655033513474022e+00 -5.083911327799010671e+00 -1.198655033513474022e+00 2.920541599502334051e+01
-1.918634241194558854e+01 -2.815887043366009923e+00 -3.198111668102742389e+00 -2.815887043366009923e+00 -9.498881988981812796e+00 1.894109500399020707e+00 -3.198111668102742389e+00 1.894109500399020707e+00 -8.748118145860182437e+00
-4.669270705096439933e+00 1.112148537113737845e+01 5.181736613671745317e+00 1.112148537113737845e+01 -3.179637518553105835e+00 -1.155536165073491661e+00 5.181736613671745317e+00 -1.155536165073491661e+00 -1.767800680091040988e+01
2.427958992952140016e-01 -7.343826186660777466e+00 -4.608012563217285695e+00 -7.343826186660777466e+00 2.110180253268893580e+01 2.745693594304027485e+00 -4.608012563217285695e+00 2.745693594304027485e+00 1.175766224564891260e+01
4.499113593681589585e+00 -3.558863813820353439e+00 -1.168619629702613061e+01 -3.558863813820353439e+00 8.908054872222617604e+00 4.419318641143120452e+00 -1.168619629702613061e+01 4.419318641143120452e+00 -3.816056297105788531e+00
1.416179532420220788e+01 -1.752818154455000332e+00 -3.883574896290438616e+00 -1.752818154455000332e+00 2.164875424558182715e+01 9.740005232675308378e-01 -3.883574896290438616e+00 9.740005232675308378e-01 5.823554075682686459e+00
7.531754966145904007e+01 -5.346592343963426863e+00 5.899712984764440282e-01 -5.346592343963426863e+00 6.399511252865913491e+01 5.322870665540781587e+00 5.899712984764440282e-01 5.322870665540781587e+00 4.846465037600928127e+01
5.263574738226983385e+01 4.154269627922931724e-02 2.031950351874651783e+00 4.154269627922931724e-02 4.265357875010352728e+01 8.121685676165199652e+00 2.031950351874651783e+00 8.121685676165199652e+00 3.874549359769304147e+01
2.300576984928729374e+01 2.633090538583150675e+00 1.097811686091605177e+00 2.633090538583150675e+00 2.637875340139729730e+01 2.499077021526255660e+00 1.097811686091605177e+00 2.499077021526255660e+00 1.436616635129610842e+01
3.803261520056633316e+01 -1.990438049367676321e+00 5.582319383799880796e-01 -1.990438049367676321e+00 4.135046716311169490e+01 1.450327113880151231e+00 5.582319383799880796e-01 1.450327113880151231e+00 2.611791895824668686e+01
-4.273316317488241367e+00 -6.368130413405321377e+00 -1.038954158987348997e+01 -6.368130413405321377e+00 -1.112982058483201975e+01 1.058296012570733602e+01 -1.038954158987348997e+01 1.058296012570733602e+01 -1.674209799560402701e+01
-1.650539460865249719e+00 -7.015548000398125872e+00 2.275618271185855246e+00 -7.015548000398125872e+00 1.330491621935573043e+01 -1.041028309550963371e+01 2.275618271185855246e+00 -1.041028309550963371e+01 1.860347453309538679e+01
1.843096634826367364e+01 -8.908131506100536612e+00 4.040149519557707514e+00 -8.908131506100536612e+00 2.792801372196071696e+01 1.423231982090189796e+01 4.040149519557707514e+00 1.423231982090189796e+01 1.430089318381865038e+00
8.567302824355888191e+00 1.056703875610237375e+01 -9.748297969600885793e+00 1.056703875610237375e+01 1.136700649838754096e+01 -2.127590411303018403e+00 -9.748297969600885793e+00 -2.127590411303018403e+00 -2.333136584076900988e+01
3.851657460498309860e+01 -4.124650882035328259e+00 1.156084648371400458e+00 -4.124650882035328259e+00 3.767668144207825520e+01 9.185011392263580987e+00 1.156084648371400458e+00 9.185011392263580987e+00 6.999429839087120797e+00
8.896223344205484551e+00 -3.680633027526934997e-01 4.015217335035389246e-01 -3.680633027526934997e-01 1.873514363005172356e+01 8.961909273888348793e+00 4.015217335035389246e-01 8.961909273888348793e+00 7.454408521201516535e+00
1.283689502685947481e+01 -5.336489439448411254e+00 9.565749793596397543e-01 -5.336489439448411254e+00 2.479517680763556697e+01 5.083842777780928301e+00 9.565749793596397543e-01 5.083842777780928301e+00 5.320032421577288062e+00
6.687473225786185083e+01 4.957701936055308956e+00 3.523373773847089385e+00 4.957701936055308956e+00 5.758683014222904006e+01 5.334857362269810999e+00 3.523373773847089385e+00 5.334857362269810999e+00 3.003770894393763768e+01
4.163365513203969925e+01 -4.868185461136662617e+00 2.963383405722444519e-01 -4.868185461136662617e+00 3.637573542151514516e+01 1.433019937229232377e-01 2.963383405722444519e-01 1.433019937229232377e-01 2.891328024973692834e+01
-2.974613363794109233e+00 -1.510348493235674283e+01 -5.156880507596586227e+00 -1.510348493235674283e+01 -7.996157793257147262e+00 -7.897919596615811111e-01 -5.156880507596586227e+00 -7.897919596615811111e-01 -2.796908950736124666e+00
-1.531801813826639824e+00 -3.570178956969643380e+00 1.051710100699754680e+00 -3.570178956969643380e+00 -1.207087484753005979e+00 5.363652960845426421e+00 1.051710100699754680e+00 5.363652960845426421e+00 7.884421555910529733e+00
3.794814525646888370e+01 -3.469728499239799202e+00 1.683719115323869531e-01 -3.469728499239799202e+00 3.766928144416143454e+01 1.368602314242671203e-01 1.683719115323869531e-01 1.368602314242671203e-01 2.386374127832420555e+01
-1.436156242363239066e+01 7.528800899725337281e+00 5.469098644519292812e-02 7.528800899725337281e+00 2.808241031362788132e+00 4.903433228024355550e+00 5.469098644519292812e-02 4.903433228024355550e+00 5.130222026616132247e+00
4.082073351834822006e+01 -3.296895739741402820e-01 4.477380689495759625e-01 -3.296895739741402820e-01 4.234109892257478691e+01 -1.727469862193180106e+00 4.477380689495759625e-01 -1.727469862193180106e+00 2.557860078143034954e+01
-3.727849809872039621e+00 6.370231526824721158e+00 -2.269700380643873583e+00 6.370231526824721158e+00 -5.332882771776858988e+00 -1.010863603843968755e-01 -2.269700380643873583e+00 -1.010863603843968755e-01 -4.327358180828208845e+01
3.537103567908829405e+01 -4.045016687646206144e+00 3.868954895400967153e+00 -4.045016687646206144e+00 5.355958383427008584e+01 -4.824482953268283580e+00 3.868954895400967153e+00 -4.824482953268283580e+00 3.296896856475535742e+01
5.418806474886894264e+00 8.610879030517898158e+00 -8.319566900728659897e-01 8.610879030517898158e+00 2.047304733066534155e+01 -8.138431662910439179e-01 -8.319566900728659897e-01 -8.138431662910439179e-01 -4.303943765978864633e+00
2.427656372024728526e+01 1.718657334226319611e+00 6.168301649622378591e+00 1.718657334226319611e+00 4.514636614728718200e+01 -6.734367019039538604e+00 6.168301649622378591e+00 -6.734367019039538604e+00 2.615055736049995971e+01
5.457742285910281765e+00 -5.797612566437353454e-01 -1.113266796725514318e+01 -5.797612566437353454e-01 -4.002877334135562570e+00 5.777108295564026275e-01 -1.113266796725514318e+01 5.777108295564026275e-01 -9.180907191548878243e-01
-1.318159117441918937e+01 -1.710915259181746473e+00 4.182870234648047969e+00 -1.710915259181746473e+00 -1.332396316793697544e+01 -1.258979890286144321e-01 4.182870234648047969e+00 -1.258979890286144321e-01 7.060959786343458333e+00
-1.574659391537077191e+01 1.491422256465824958e+01 7.048557022994518029e+00 1.491422256465824958e+01 -9.828317157869559395e+00 2.598443081876704031e-01 7.048557022994518029e+00 2.598443081876704031e-01 -1.119354284575879532e+01
-9.012278510610746807e+00 1.191974159531247146e+01 3.580844732086417848e-01 1.191974159531247146e+01 -1.587993874916901937e+01 -3.479657095946165235e+00 3.580844732086417848e-01 -3.479657095946165235e+00 -3.603369037204009118e+01
-2.028204482738928505e+01 5.985111305815134841e+00 -6.120734904458775105e+00 5.985111305815134841e+00 -8.841174514360991665e+00 -3.548604040684021577e+00 -6.120734904458775105e+00 -3.548604040684021577e+00 -1.638269742416167185e+00
2.431064430089631045e+01 -8.688553439896985253e+00 -9.282943953268570914e-01 -8.688553439896985253e+00 1.856609448938999307e+01 -2.021206632314739071e+00 -9.282943953268570914e-01 -2.021206632314739071e+00 2.203427341483251212e+01
2.063306140206764994e+01 2.173674486578079379e-01 8.391786368674656327e-01 2.173674486578079379e-01 1.659375024648802111e+01 5.152500476054411305e-01 8.391786368674656327e-01 5.152500476054411305e-01 6.635219608372404210e+00
