1.596489999999999965e+00 7.521600000000000508e-01 4.337200000000000166e+00 1.741120000000000001e+00 9.224900000000000322e-01 9.081080000000000041e+00 1.116899999999999976e-01 3.654020000000000046e+00 4.405429999999999957e+00 1.858100000000000029e-01 3.573469999999999924e+00 9.122980000000000089e+00 4.656320000000000014e+00 9.752800000000000358e-01 4.151200000000000223e+00 3.162139999999999951e+00 3.640559999999999796e+00 4.238789999999999836e+00 3.338239999999999874e+00 3.456739999999999924e+00 9.128429999999999822e+00 2.452999999999999972e-02 1.712460000000000093e+00 1.652809999999999890e+00 1.348100000000000132e-01 1.626219999999999999e+00 6.718869999999999898e+00 -1.610740000000000061e+00 4.355480000000000018e+00 1.796200000000000019e+00 -1.332940000000000014e+00 3.993660000000000210e+00 6.740319999999999645e+00 3.036649999999999849e+00 1.798959999999999892e+00 2.157610000000000028e+00 3.071149999999999824e+00 1.653310000000000057e+00 6.764540000000000219e+00 1.401100000000000012e+00 4.260089999999999932e+00 1.819390000000000063e+00 1.714399999999999924e+00 4.264090000000000380e+00 6.525640000000000107e+00 1.407040000000000068e+00 7.264500000000000401e-01 2.374659999999999993e+00 1.547299999999999898e+00 6.587300000000000377e-01 7.199709999999999610e+00 -1.442599999999999993e-01 3.437619999999999898e+00 2.392650000000000166e+00 2.671499999999999986e-01 3.379710000000000214e+00 7.160129999999999661e+00 4.473629999999999995e+00 8.810099999999999598e-01 2.404860000000000220e+00 4.932559999999999611e+00 5.623899999999999455e-01 7.817809999999999704e+00 3.030600000000000183e+00 3.624169999999999892e+00 2.501079999999999970e+00 3.159040000000000070e+00 3.405100000000000016e+00 7.186119999999999841e+00 6.839000000000000634e-02 1.787849999999999939e+00 4.726600000000000357e+00 5.709999999999999798e-02 1.689750000000000085e+00 9.495060000000000500e+00 -1.466990000000000016e+00 4.437149999999999928e+00 4.981919999999999682e+00 -1.445650000000000102e+00 4.531390000000000029e+00 9.556979999999999364e+00 2.995359999999999800e+00 1.873650000000000038e+00 4.842190000000000438e+00 3.535460000000000047e+00 1.585730000000000084e+00 9.396330000000000737e+00 1.628319999999999990e+00 4.678950000000000387e+00 4.777960000000000207e+00 1.421780000000000044e+00 4.726510000000000211e+00 5.859999999999999931e-02
1.494359999999999911e+00 6.898199999999999887e-01 4.464150000000000063e+00 1.759100000000000108e+00 6.037599999999999634e-01 9.509560000000000457e+00 -6.995999999999999441e-02 3.461430000000000007e+00 4.432349999999999568e+00 6.873999999999999555e-02 3.414759999999999796e+00 9.420659999999999812e+00 4.800189999999999735e+00 8.042099999999999804e-01 4.429210000000000313e+00 3.141179999999999861e+00 3.550110000000000099e+00 4.522689999999999877e+00 3.312549999999999883e+00 3.288640000000000008e+00 9.338900000000000645e+00 1.059800000000000048e-01 1.843579999999999997e+00 2.088779999999999859e+00 1.225399999999999961e-01 1.612749999999999906e+00 6.984860000000000291e+00 -1.597499999999999920e+00 4.399339999999999584e+00 2.139829999999999899e+00 -1.486690000000000067e+00 4.372150000000000425e+00 7.015170000000000350e+00 3.234339999999999993e+00 1.699149999999999938e+00 1.936909999999999910e+00 3.135540000000000216e+00 1.696760000000000046e+00 6.776159999999999961e+00 1.518590000000000106e+00 4.540799999999999947e+00 1.933570000000000011e+00 1.629389999999999894e+00 4.418680000000000163e+00 7.064350000000000129e+00 1.669349999999999890e+00 9.595299999999999940e-01 2.603559999999999874e+00 1.772170000000000023e+00 7.968300000000000383e-01 7.694849999999999746e+00 -1.353399999999999881e-01 3.511299999999999866e+00 2.498780000000000001e+00 1.684199999999999864e-01 3.534670000000000201e+00 7.615549999999999820e+00 4.970790000000000042e+00 7.142100000000000115e-01 2.688450000000000006e+00 4.746999999999999886e+00 7.210400000000000142e-01 7.737379999999999924e+00 3.298900000000000166e+00 3.668559999999999821e+00 2.474009999999999820e+00 3.453440000000000065e+00 3.481759999999999966e+00 7.491209999999999702e+00 1.367400000000000004e-01 1.690630000000000077e+00 5.132299999999999862e+00 -1.809999999999999977e-03 1.167559999999999931e+00 9.865119999999999223e+00 -1.655399999999999983e+00 4.421640000000000015e+00 5.012620000000000076e+00 -1.447500000000000009e+00 4.091610000000000191e+00 1.007768000000000086e+01 3.312300000000000022e+00 1.666400000000000103e+00 5.030850000000000044e+00 3.495460000000000012e+00 1.507730000000000015e+00 1.197999999999999933e-02 1.445750000000000091e+00 4.450090000000000323e+00 4.996999999999999886e+00 1.751049999999999995e+00 4.220030000000000392e+00 1.007587999999999973e+01
1.488469999999999960e+00 9.928399999999999448e-01 4.315199999999999925e+00 1.422809999999999908e+00 1.188870000000000093e+00 9.296290000000000830e+00 -2.495999999999999955e-02 3.756619999999999848e+00 4.311420000000000030e+00 9.811999999999999889e-02 3.913710000000000022e+00 9.232369999999999521e+00 4.661880000000000024e+00 1.049930000000000030e+00 4.186029999999999696e+00 3.113189999999999902e+00 3.620260000000000034e+00 4.407099999999999795e+00 3.086100000000000065e+00 3.808749999999999858e+00 9.226150000000000517e+00 6.657000000000000417e-02 1.773169999999999913e+00 1.880679999999999907e+00 -2.279000000000000123e-02 2.037209999999999965e+00 6.532460000000000377e+00 -1.386279999999999957e+00 4.544120000000000381e+00 1.906460000000000043e+00 -1.599960000000000049e+00 4.712150000000000283e+00 6.828949999999999854e+00 3.152280000000000193e+00 1.826580000000000092e+00 1.903280000000000083e+00 2.928249999999999797e+00 1.947659999999999947e+00 6.704900000000000304e+00 1.588899999999999979e+00 4.436390000000000278e+00 1.870219999999999994e+00 1.464139999999999997e+00 4.686079999999999579e+00 6.696530000000000094e+00 1.636290000000000022e+00 8.800799999999999734e-01 2.436650000000000205e+00 1.370549999999999935e+00 1.117210000000000036e+00 7.326749999999999652e+00 1.706100000000000116e-01 3.539089999999999847e+00 2.500509999999999788e+00 -8.885999999999999455e-02 3.777149999999999785e+00 7.388289999999999580e+00 4.715550000000000352e+00 9.542199999999999571e-01 2.364669999999999828e+00 4.475220000000000198e+00 1.114579999999999904e+00 7.330759999999999721e+00 3.138609999999999900e+00 3.636120000000000019e+00 2.550320000000000142e+00 2.978310000000000013e+00 3.811310000000000198e+00 7.252150000000000318e+00 -3.910999999999999893e-02 2.011849999999999916e+00 4.766350000000000087e+00 2.018999999999999961e-02 1.830619999999999914e+00 2.881999999999999840e-02 -1.601900000000000102e+00 4.647719999999999629e+00 4.890310000000000379e+00 -1.486620000000000053e+00 4.531520000000000437e+00 3.404000000000000081e-02 3.076610000000000067e+00 1.805369999999999919e+00 4.863389999999999880e+00 3.175019999999999953e+00 1.835490000000000066e+00 3.982999999999999735e-02 1.588969999999999994e+00 4.727999999999999758e+00 4.724669999999999703e+00 1.544459999999999944e+00 4.837410000000000210e+00 9.693260000000000431e+00
1.566380000000000106e+00 8.460800000000000542e-01 4.412589999999999790e+00 1.599969999999999892e+00 7.961500000000000243e-01 9.406079999999999330e+00 3.074999999999999956e-02 3.540630000000000166e+00 4.416960000000000441e+00 5.151000000000000023e-02 3.435280000000000111e+00 9.424530000000000740e+00 4.620790000000000397e+00 8.577200000000000379e-01 4.389730000000000132e+00 3.076579999999999870e+00 3.538899999999999935e+00 4.418129999999999669e+00 3.118729999999999780e+00 3.438559999999999839e+00 9.417510000000000048e+00 3.844000000000000195e-02 1.767279999999999962e+00 1.891559999999999908e+00 7.116999999999999715e-02 1.715759999999999952e+00 6.899250000000000327e+00 -1.520790000000000086e+00 4.430100000000000371e+00 1.883270000000000000e+00 -1.474140000000000006e+00 4.372340000000000337e+00 6.921509999999999607e+00 3.068750000000000089e+00 1.789500000000000091e+00 1.899890000000000079e+00 3.146850000000000147e+00 1.697969999999999979e+00 6.904239999999999711e+00 1.532859999999999889e+00 4.436410000000000409e+00 1.898730000000000029e+00 1.586260000000000003e+00 4.368420000000000414e+00 6.902759999999999785e+00 1.568640000000000034e+00 8.741600000000000481e-01 2.523239999999999927e+00 1.605529999999999902e+00 7.910300000000000109e-01 7.548530000000000406e+00 1.669999999999999957e-02 3.537609999999999921e+00 2.524469999999999992e+00 4.188000000000000056e-02 3.481829999999999981e+00 7.538619999999999877e+00 4.623560000000000336e+00 8.809799999999999853e-01 2.529030000000000111e+00 4.664909999999999890e+00 8.004599999999999493e-01 7.692179999999999573e+00 3.074370000000000047e+00 3.545230000000000103e+00 2.514559999999999906e+00 3.130199999999999871e+00 3.495880000000000098e+00 7.545460000000000278e+00 2.374000000000000069e-02 1.729449999999999932e+00 5.018270000000000231e+00 -2.180999999999999953e-02 1.633550000000000058e+00 9.973280000000000811e+00 -1.497489999999999988e+00 4.385849999999999582e+00 4.988059999999999938e+00 -1.563129999999999908e+00 4.446799999999999642e+00 5.999999999999999474e-04 3.105049999999999866e+00 1.737649999999999917e+00 4.991729999999999556e+00 3.217159999999999798e+00 1.628209999999999935e+00 9.964909999999999712e+00 1.558820000000000094e+00 4.427319999999999922e+00 5.014520000000000088e+00 1.577110000000000012e+00 4.466190000000000104e+00 9.967000000000000526e+00
1.509919999999999929e+00 8.754600000000000160e-01 4.338599999999999568e+00 1.492490000000000094e+00 9.276499999999999746e-01 9.262199999999999989e+00 -8.290000000000000493e-03 3.572039999999999882e+00 4.332650000000000112e+00 -1.585999999999999910e-02 3.528820000000000068e+00 9.245100000000000762e+00 4.579690000000000261e+00 8.975699999999999790e-01 4.251669999999999838e+00 3.085649999999999782e+00 3.547149999999999803e+00 4.333520000000000039e+00 3.039880000000000138e+00 3.544389999999999930e+00 9.275209999999999511e+00 1.829000000000000070e-02 1.796689999999999898e+00 1.912730000000000041e+00 -6.810000000000000081e-03 1.799160000000000093e+00 6.736040000000000028e+00 -1.527740000000000098e+00 4.429350000000000342e+00 1.831890000000000018e+00 -1.546650000000000080e+00 4.450249999999999595e+00 6.830309999999999881e+00 3.028090000000000170e+00 1.785570000000000102e+00 1.923839999999999995e+00 3.025539999999999896e+00 1.808759999999999923e+00 6.761599999999999611e+00 1.548769999999999980e+00 4.387629999999999697e+00 1.904830000000000023e+00 1.515830000000000011e+00 4.419209999999999638e+00 6.727739999999999831e+00 1.515239999999999920e+00 8.778500000000000192e-01 2.493959999999999955e+00 1.477249999999999952e+00 9.102200000000000291e-01 7.435179999999999900e+00 -1.916999999999999954e-02 3.567130000000000134e+00 2.517030000000000101e+00 -2.529999999999999957e-02 3.575919999999999987e+00 7.438769999999999882e+00 4.572099999999999831e+00 8.827000000000000401e-01 2.395399999999999974e+00 4.555920000000000414e+00 8.929500000000000215e-01 7.533019999999999605e+00 3.096470000000000056e+00 3.576060000000000016e+00 2.498369999999999980e+00 3.046590000000000131e+00 3.571450000000000014e+00 7.432649999999999757e+00 -4.630999999999999700e-02 1.779879999999999907e+00 4.864119999999999777e+00 -2.715299999999999936e-01 1.667070000000000052e+00 9.794529999999999959e+00 -1.534319999999999906e+00 4.446519999999999584e+00 4.934540000000000148e+00 -1.549009999999999998e+00 4.445289999999999964e+00 9.832770000000000010e+00 3.068670000000000009e+00 1.768080000000000096e+00 4.853299999999999947e+00 3.244850000000000012e+00 1.656500000000000083e+00 9.792880000000000251e+00 1.523760000000000003e+00 4.474470000000000169e+00 4.862790000000000390e+00 1.498609999999999998e+00 4.690260000000000318e+00 9.795460000000000278e+00
1.547220000000000040e+00 8.795300000000000340e-01 4.383499999999999730e+00 1.527339999999999920e+00 9.260099999999999998e-01 9.331509999999999749e+00 -5.279999999999999971e-02 3.595650000000000013e+00 4.382369999999999877e+00 -2.150000000000000001e-03 3.581490000000000062e+00 9.337920000000000442e+00 4.619100000000000428e+00 8.987500000000000488e-01 4.316180000000000128e+00 3.082089999999999996e+00 3.601890000000000036e+00 4.385930000000000106e+00 3.043060000000000098e+00 3.572169999999999845e+00 9.353170000000000428e+00 2.734999999999999931e-02 1.795960000000000001e+00 1.935119999999999951e+00 3.150000000000000022e-02 1.807579999999999965e+00 6.792690000000000339e+00 -1.534059999999999979e+00 4.454430000000000334e+00 1.871499999999999941e+00 -1.549690000000000012e+00 4.449840000000000018e+00 6.922170000000000378e+00 3.063610000000000166e+00 1.804659999999999931e+00 1.918840000000000101e+00 3.049799999999999844e+00 1.795050000000000034e+00 6.808650000000000091e+00 1.541109999999999980e+00 4.446220000000000283e+00 1.939969999999999972e+00 1.537519999999999998e+00 4.418929999999999580e+00 6.803309999999999746e+00 1.548839999999999995e+00 8.650999999999999801e-01 2.526679999999999815e+00 1.515479999999999938e+00 8.996699999999999697e-01 7.471770000000000245e+00 -2.035000000000000003e-02 3.574419999999999931e+00 2.514679999999999804e+00 -2.500000000000000052e-03 3.567480000000000206e+00 7.470900000000000318e+00 4.617750000000000021e+00 8.974100000000000410e-01 2.426239999999999952e+00 4.602219999999999978e+00 8.986399999999999944e-01 7.483539999999999637e+00 3.115250000000000075e+00 3.576970000000000205e+00 2.530600000000000183e+00 3.068179999999999907e+00 3.574370000000000047e+00 7.474809999999999732e+00 -1.410999999999999928e-02 1.793830000000000036e+00 4.895150000000000112e+00 -1.807699999999999863e-01 1.702290000000000081e+00 9.873689999999999856e+00 -1.542750000000000066e+00 4.464190000000000325e+00 5.042650000000000077e+00 -1.562570000000000014e+00 4.470220000000000304e+00 9.918139999999999290e+00 3.089749999999999996e+00 1.787090000000000067e+00 4.913979999999999571e+00 3.214710000000000178e+00 1.715580000000000105e+00 9.898179999999999978e+00 1.537509999999999932e+00 4.477470000000000283e+00 4.904180000000000206e+00 1.530669999999999975e+00 4.668899999999999828e+00 9.876239999999999242e+00
1.620889999999999942e+00 9.258100000000000218e-01 4.413359999999999950e+00 1.684320000000000039e+00 6.036500000000000199e-01 9.475450000000000372e+00 1.279200000000000059e-01 3.619069999999999787e+00 4.415049999999999919e+00 2.050099999999999978e-01 3.659380000000000077e+00 9.128420000000000201e+00 4.679820000000000313e+00 9.386499999999999844e-01 4.449600000000000222e+00 3.149630000000000152e+00 3.645399999999999974e+00 4.370739999999999625e+00 2.985689999999999955e+00 3.515050000000000008e+00 9.229179999999999495e+00 -1.995999999999999858e-02 1.630700000000000038e+00 1.777630000000000043e+00 1.548000000000000070e-02 1.716159999999999908e+00 6.863010000000000055e+00 -1.453610000000000069e+00 4.458039999999999559e+00 1.944250000000000034e+00 -1.552680000000000060e+00 4.447440000000000282e+00 6.969929999999999737e+00 3.151380000000000070e+00 1.676919999999999966e+00 1.930870000000000086e+00 3.075709999999999944e+00 1.705209999999999892e+00 6.779209999999999958e+00 1.426199999999999912e+00 4.249509999999999899e+00 1.656250000000000000e+00 1.675950000000000051e+00 4.271550000000000402e+00 6.782630000000000159e+00 1.525109999999999966e+00 8.132399999999999629e-01 2.341130000000000155e+00 1.653780000000000028e+00 7.195000000000000284e-01 7.464120000000000310e+00 1.674000000000000141e-02 3.497720000000000162e+00 2.447719999999999896e+00 5.365999999999999936e-02 3.484329999999999927e+00 7.371610000000000440e+00 4.630489999999999995e+00 8.002099999999999769e-01 2.407029999999999781e+00 4.680419999999999803e+00 7.313100000000000156e-01 7.871450000000000280e+00 3.134640000000000093e+00 3.732450000000000045e+00 2.385629999999999917e+00 3.094800000000000217e+00 3.493840000000000057e+00 7.428449999999999775e+00 8.298999999999999433e-02 1.837709999999999955e+00 4.950479999999999769e+00 -9.486999999999999600e-02 1.554470000000000018e+00 9.685679999999999623e+00 -1.477729999999999988e+00 4.484510000000000218e+00 4.964489999999999625e+00 -1.428830000000000044e+00 4.199349999999999916e+00 9.788729999999999265e+00 3.065280000000000005e+00 1.824210000000000109e+00 4.938749999999999751e+00 3.593770000000000131e+00 1.402879999999999905e+00 9.856109999999999260e+00 1.601930000000000076e+00 4.643959999999999866e+00 4.926540000000000141e+00 1.611010000000000053e+00 4.571139999999999759e+00 9.816100000000000492e+00
1.533220000000000027e+00 8.611199999999999966e-01 4.312090000000000423e+00 1.537809999999999899e+00 9.130899999999999572e-01 9.197400000000000020e+00 9.900000000000000813e-03 3.554759999999999920e+00 4.303370000000000140e+00 2.129999999999999949e-03 3.575990000000000002e+00 9.205069999999999197e+00 4.603679999999999772e+00 8.866600000000000037e-01 4.328909999999999592e+00 3.079759999999999831e+00 3.533150000000000013e+00 4.317149999999999821e+00 3.061110000000000220e+00 3.570590000000000153e+00 9.200540000000000163e+00 3.989999999999999797e-02 1.772029999999999994e+00 1.857390000000000096e+00 2.826000000000000040e-02 1.785009999999999986e+00 6.758200000000000429e+00 -1.540229999999999988e+00 4.420270000000000366e+00 1.857509999999999994e+00 -1.530920000000000059e+00 4.432649999999999757e+00 6.758259999999999934e+00 3.050159999999999982e+00 1.777809999999999890e+00 1.846360000000000001e+00 3.056280000000000108e+00 1.780289999999999928e+00 6.766449999999999854e+00 1.548259999999999970e+00 4.428860000000000241e+00 1.871480000000000032e+00 1.553790000000000004e+00 4.420519999999999783e+00 6.768489999999999895e+00 1.541849999999999943e+00 8.830500000000000016e-01 2.442979999999999929e+00 1.529169999999999918e+00 8.646700000000000497e-01 7.365230000000000388e+00 7.000000000000000146e-03 3.543779999999999930e+00 2.415169999999999817e+00 -1.791999999999999843e-02 3.568210000000000104e+00 7.363839999999999719e+00 4.599529999999999674e+00 8.958199999999999497e-01 2.447000000000000064e+00 4.608229999999999826e+00 9.003600000000000492e-01 7.597649999999999793e+00 3.054520000000000124e+00 3.548179999999999890e+00 2.441390000000000171e+00 3.074050000000000171e+00 3.545970000000000066e+00 7.361620000000000275e+00 1.670999999999999916e-02 1.761700000000000044e+00 4.890299999999999869e+00 -1.934500000000000108e-01 1.652609999999999912e+00 9.701529999999999987e+00 -1.528909999999999991e+00 4.424120000000000275e+00 4.888840000000000074e+00 -1.556850000000000067e+00 4.457639999999999603e+00 1.123999999999999999e-02 3.066050000000000164e+00 1.764590000000000103e+00 4.887940000000000396e+00 3.276320000000000121e+00 1.681859999999999911e+00 9.697480000000000544e+00 1.537500000000000089e+00 4.422749999999999737e+00 4.902779999999999916e+00 1.530569999999999986e+00 4.670350000000000001e+00 9.693130000000000024e+00
1.534820000000000073e+00 9.434599999999999653e-01 4.396560000000000024e+00 1.555849999999999955e+00 1.001260000000000039e+00 9.235870000000000246e+00 -5.483999999999999986e-02 3.605259999999999909e+00 4.409950000000000259e+00 -5.500000000000000331e-04 3.702240000000000197e+00 9.396610000000000795e+00 4.663319999999999688e+00 8.232000000000000428e-01 4.540189999999999948e+00 3.055489999999999817e+00 3.638149999999999995e+00 4.328170000000000073e+00 3.161960000000000104e+00 3.611790000000000056e+00 9.319750000000000867e+00 8.789999999999999203e-03 1.752890000000000059e+00 1.935419999999999918e+00 6.035999999999999699e-02 1.861839999999999939e+00 6.838860000000000383e+00 -1.572410000000000085e+00 4.485829999999999984e+00 1.873490000000000100e+00 -1.573890000000000011e+00 4.575660000000000061e+00 6.849420000000000286e+00 3.095120000000000093e+00 1.745000000000000107e+00 1.843970000000000109e+00 3.155139999999999834e+00 1.769640000000000102e+00 6.860719999999999708e+00 1.505239999999999911e+00 4.400079999999999991e+00 1.856610000000000094e+00 1.700090000000000101e+00 4.306269999999999598e+00 6.920609999999999928e+00 1.538200000000000012e+00 9.156499999999999639e-01 2.491460000000000008e+00 1.534569999999999990e+00 9.131599999999999717e-01 7.312190000000000190e+00 -2.696000000000000132e-02 3.505489999999999995e+00 2.369990000000000041e+00 4.429000000000000298e-02 3.656239999999999934e+00 7.480089999999999684e+00 4.650019999999999598e+00 7.680299999999999905e-01 2.561100000000000154e+00 4.694790000000000241e+00 9.726799999999999891e-01 7.962699999999999889e+00 3.079099999999999948e+00 3.574359999999999982e+00 2.438200000000000145e+00 3.214069999999999983e+00 3.544099999999999806e+00 7.438310000000000421e+00 -2.035999999999999963e-02 1.829569999999999919e+00 5.020249999999999879e+00 -2.491700000000000026e-01 1.647010000000000085e+00 9.776849999999999596e+00 -1.647259999999999946e+00 4.479289999999999772e+00 4.891650000000000276e+00 -1.594070000000000098e+00 4.602190000000000225e+00 9.810620000000000118e+00 3.054640000000000022e+00 1.842410000000000103e+00 5.013860000000000205e+00 3.497970000000000024e+00 1.801220000000000043e+00 9.751340000000000785e+00 1.529039999999999955e+00 4.474129999999999718e+00 5.007990000000000386e+00 1.463810000000000056e+00 4.933399999999999785e+00 9.820479999999999876e+00
1.527239999999999931e+00 8.639499999999999957e-01 4.319449999999999790e+00 1.520550000000000068e+00 9.356200000000000072e-01 9.244260000000000588e+00 -2.642999999999999863e-02 3.547670000000000101e+00 4.323100000000000165e+00 3.629999999999999980e-03 3.555639999999999912e+00 9.256410000000000693e+00 4.559110000000000440e+00 8.849500000000000144e-01 4.231749999999999901e+00 3.065209999999999990e+00 3.545819999999999972e+00 4.334740000000000038e+00 3.026699999999999946e+00 3.573770000000000113e+00 9.254810000000000869e+00 1.455000000000000043e-02 1.766089999999999938e+00 1.908649999999999958e+00 -2.220000000000000185e-03 1.783679999999999932e+00 6.739760000000000417e+00 -1.521900000000000031e+00 4.415919999999999845e+00 1.833399999999999919e+00 -1.532999999999999918e+00 4.436899999999999622e+00 6.836359999999999992e+00 3.030499999999999972e+00 1.772370000000000001e+00 1.897119999999999918e+00 3.006120000000000125e+00 1.815909999999999913e+00 6.735009999999999941e+00 1.506979999999999986e+00 4.372679999999999900e+00 1.912549999999999972e+00 1.492240000000000011e+00 4.397520000000000095e+00 6.729580000000000339e+00 1.544399999999999995e+00 8.644100000000000117e-01 2.485469999999999846e+00 1.515139999999999931e+00 9.270800000000000152e-01 7.414039999999999964e+00 -2.268999999999999836e-02 3.536649999999999849e+00 2.492459999999999898e+00 -1.774999999999999842e-02 3.543709999999999916e+00 7.430690000000000239e+00 4.563259999999999650e+00 8.824100000000000277e-01 2.395570000000000199e+00 4.569399999999999906e+00 9.147199999999999775e-01 7.546990000000000087e+00 3.061869999999999870e+00 3.560670000000000002e+00 2.496329999999999938e+00 3.027610000000000134e+00 3.584979999999999833e+00 7.416940000000000310e+00 -3.728999999999999676e-02 1.770590000000000108e+00 4.860669999999999824e+00 -2.767399999999999860e-01 1.660670000000000091e+00 9.753429999999999822e+00 -1.539940000000000087e+00 4.427789999999999893e+00 4.937229999999999563e+00 -1.533409999999999940e+00 4.462480000000000224e+00 9.811260000000000758e+00 3.051559999999999828e+00 1.762569999999999970e+00 4.854969999999999786e+00 3.264450000000000074e+00 1.673179999999999890e+00 9.775420000000000442e+00 1.499370000000000092e+00 4.460689999999999600e+00 4.857050000000000090e+00 1.476830000000000087e+00 4.722979999999999734e+00 9.777789999999999537e+00
1.499980000000000091e+00 8.818399999999999572e-01 4.315120000000000289e+00 1.503049999999999997e+00 9.111299999999999955e-01 9.271190000000000708e+00 -4.041000000000000147e-02 3.580070000000000086e+00 4.332670000000000243e+00 -2.581999999999999920e-02 3.554159999999999986e+00 9.266600000000000392e+00 4.592060000000000031e+00 9.018899999999999695e-01 4.308699999999999974e+00 3.039569999999999883e+00 3.534879999999999800e+00 4.313939999999999664e+00 3.020640000000000214e+00 3.556249999999999911e+00 9.266349999999999199e+00 2.650000000000000012e-03 1.781420000000000003e+00 1.887240000000000029e+00 -7.590000000000000392e-03 1.817620000000000013e+00 6.768369999999999997e+00 -1.577020000000000088e+00 4.421020000000000394e+00 1.876009999999999955e+00 -1.570189999999999975e+00 4.454360000000000319e+00 6.804000000000000270e+00 3.030870000000000175e+00 1.785639999999999894e+00 1.893029999999999990e+00 3.034310000000000063e+00 1.779500000000000082e+00 6.780599999999999739e+00 1.499149999999999983e+00 4.395249999999999879e+00 1.897399999999999975e+00 1.491219999999999990e+00 4.443410000000000082e+00 6.753529999999999589e+00 1.522899999999999920e+00 8.702900000000000080e-01 2.459039999999999893e+00 1.501609999999999889e+00 9.124799999999999578e-01 7.400450000000000195e+00 -1.829000000000000070e-02 3.540490000000000137e+00 2.468059999999999921e+00 -1.959999999999999937e-02 3.564109999999999889e+00 7.405219999999999914e+00 4.589620000000000033e+00 8.767000000000000348e-01 2.444280000000000008e+00 4.581059999999999910e+00 8.986199999999999743e-01 7.508759999999999657e+00 3.035210000000000186e+00 3.529619999999999980e+00 2.465120000000000200e+00 3.022400000000000198e+00 3.548389999999999933e+00 7.393919999999999604e+00 -2.114999999999999866e-02 1.787579999999999947e+00 4.906259999999999621e+00 -1.990200000000000025e-01 1.708630000000000093e+00 9.789979999999999905e+00 -1.580969999999999986e+00 4.432459999999999845e+00 4.905870000000000175e+00 -1.560990000000000100e+00 4.410050000000000026e+00 1.009000000000000001e-02 3.035740000000000105e+00 1.757419999999999982e+00 4.884079999999999977e+00 3.211829999999999963e+00 1.688549999999999995e+00 9.834899999999999309e+00 1.512729999999999908e+00 4.431129999999999569e+00 4.887050000000000338e+00 1.492439999999999989e+00 4.662849999999999717e+00 9.796499999999999986e+00
1.543889999999999985e+00 8.662800000000000500e-01 4.337030000000000385e+00 1.585390000000000077e+00 8.155200000000000227e-01 9.296030000000000015e+00 1.009999999999999960e-02 3.496550000000000047e+00 4.360990000000000144e+00 4.388999999999999846e-02 3.432889999999999997e+00 9.285130000000000550e+00 4.623859999999999637e+00 8.588200000000000278e-01 4.332220000000000404e+00 3.083380000000000010e+00 3.498559999999999892e+00 4.338610000000000078e+00 3.111870000000000136e+00 3.471509999999999874e+00 9.283540000000000347e+00 4.238999999999999713e-02 1.756850000000000023e+00 1.879450000000000065e+00 4.773000000000000159e-02 1.713570000000000038e+00 6.796630000000000393e+00 -1.503230000000000066e+00 4.381210000000000271e+00 1.869709999999999983e+00 -1.489069999999999894e+00 4.366270000000000095e+00 6.856980000000000075e+00 3.069010000000000016e+00 1.779740000000000100e+00 1.900859999999999994e+00 3.088039999999999896e+00 1.728580000000000005e+00 6.787259999999999849e+00 1.545670000000000099e+00 4.379279999999999617e+00 1.869259999999999922e+00 1.574440000000000062e+00 4.322630000000000194e+00 6.789109999999999978e+00 1.537560000000000038e+00 8.473800000000000221e-01 2.435970000000000191e+00 1.582449999999999912e+00 8.420100000000000362e-01 7.437459999999999738e+00 8.920000000000000845e-03 3.506990000000000052e+00 2.466359999999999886e+00 4.476999999999999730e-02 3.460109999999999797e+00 7.429140000000000299e+00 4.622230000000000061e+00 8.599200000000000177e-01 2.412220000000000031e+00 4.620879999999999654e+00 8.120000000000000551e-01 7.647929999999999673e+00 3.088620000000000143e+00 3.529440000000000133e+00 2.444420000000000037e+00 3.105469999999999953e+00 3.461190000000000211e+00 7.433259999999999756e+00 2.429999999999999868e-02 1.720110000000000028e+00 4.913649999999999629e+00 -1.894899999999999918e-01 1.512590000000000101e+00 9.784330000000000638e+00 -1.505649999999999933e+00 4.389809999999999768e+00 4.990949999999999775e+00 -1.518950000000000022e+00 4.397190000000000154e+00 3.200000000000000262e-04 3.101609999999999978e+00 1.725349999999999939e+00 4.920049999999999812e+00 3.353650000000000020e+00 1.558699999999999974e+00 9.816570000000000462e+00 1.559260000000000090e+00 4.361480000000000246e+00 4.893340000000000245e+00 1.580170000000000075e+00 4.605739999999999945e+00 9.788479999999999848e+00