-2.378742509399999960e+02
-2.391566382700000020e+02
-2.449031488100000047e+02
-2.470466875099999982e+02
-2.451144441900000004e+02
-2.464329321900000025e+02
-2.391106059399999992e+02
-2.456948773599999924e+02
-2.397855104999999867e+02
-2.446210361999999918e+02
-2.463536270200000047e+02
-2.447707169999999905e+02
-2.409552379900000005e+02
-2.434494109299999991e+02
-2.370863264799999968e+02
-2.459808298000000093e+02
-2.436842857499999866e+02
-2.449103967700000055e+02
-2.465816747599999985e+02
-2.380249869600000068e+02
-2.433242801300000053e+02
-2.418022027700000081e+02
-2.418210344899999882e+02
-2.373293691899999942e+02
-2.449364218800000117e+02
-2.468101165100000003e+02
-2.464119975399999873e+02
-2.404232760099999950e+02
-2.407587386399999900e+02
-2.379968239099999892e+02
-2.402637744099999964e+02
-2.394293892199999902e+02
-2.454461104400000124e+02
-2.463028038299999878e+02
-2.395875678399999913e+02
-2.419212706900000001e+02
-2.428281309500000020e+02
-2.451727050099999872e+02
-2.400169967999999869e+02
-2.407413163500000053e+02
-2.416601679800000113e+02
-2.428001829199999975e+02
-2.464203117000000134e+02
-2.464730336199999954e+02
-2.394053381399999978e+02
-2.465850964999999917e+02
-2.401462930099999937e+02
-2.393957876999999996e+02
-2.453226775699999962e+02
-2.467414201699999978e+02
