5.839825750000000149e+00 0.000000000000000000e+00 0.000000000000000000e+00 4.379869549999999556e+00 7.586155650000000250e+00 0.000000000000000000e+00 4.379869549999999556e+00 2.528718549999999787e+00 7.152296350000000302e+00
5.839825750000000149e+00 0.000000000000000000e+00 0.000000000000000000e+00 4.379869549999999556e+00 7.586155650000000250e+00 0.000000000000000000e+00 4.379869549999999556e+00 2.528718549999999787e+00 7.152296350000000302e+00
5.680930911999999999e+00 0.000000000000000000e+00 0.000000000000000000e+00 4.350996348999999874e+00 7.475162738999999945e+00 0.000000000000000000e+00 4.116745910999999758e+00 2.281187613999999808e+00 7.355675675999999719e+00
5.680930911999999999e+00 0.000000000000000000e+00 0.000000000000000000e+00 4.350996348999999874e+00 7.475162738999999945e+00 0.000000000000000000e+00 4.116745910999999758e+00 2.281187613999999808e+00 7.355675675999999719e+00
5.741830412999999744e+00 0.000000000000000000e+00 0.000000000000000000e+00 4.200614392000000308e+00 7.573210111999999938e+00 0.000000000000000000e+00 4.242961736999999900e+00 2.668345722000000197e+00 6.979999453999999659e+00
5.741830412999999744e+00 0.000000000000000000e+00 0.000000000000000000e+00 4.200614392000000308e+00 7.573210111999999938e+00 0.000000000000000000e+00 4.242961736999999900e+00 2.668345722000000197e+00 6.979999453999999659e+00
5.875809504000000238e+00 0.000000000000000000e+00 0.000000000000000000e+00 4.264476757999999812e+00 7.773406508999999964e+00 0.000000000000000000e+00 4.171847589000000411e+00 2.489362365999999938e+00 6.965999176000000404e+00
5.875809504000000238e+00 0.000000000000000000e+00 0.000000000000000000e+00 4.264476757999999812e+00 7.773406508999999964e+00 0.000000000000000000e+00 4.171847589000000411e+00 2.489362365999999938e+00 6.965999176000000404e+00
5.804525083999999779e+00 0.000000000000000000e+00 0.000000000000000000e+00 4.426621259000000030e+00 7.532585513999999982e+00 0.000000000000000000e+00 4.234322084000000430e+00 2.619524844999999935e+00 7.217015851000000204e+00
5.804525083999999779e+00 0.000000000000000000e+00 0.000000000000000000e+00 4.426621259000000030e+00 7.532585513999999982e+00 0.000000000000000000e+00 4.234322084000000430e+00 2.619524844999999935e+00 7.217015851000000204e+00
5.732301199000000125e+00 0.000000000000000000e+00 0.000000000000000000e+00 4.105941672000000153e+00 7.459639339999999841e+00 0.000000000000000000e+00 4.397303025000000254e+00 2.648603025999999971e+00 7.203514822999999900e+00
5.732301199000000125e+00 0.000000000000000000e+00 0.000000000000000000e+00 4.105941672000000153e+00 7.459639339999999841e+00 0.000000000000000000e+00 4.397303025000000254e+00 2.648603025999999971e+00 7.203514822999999900e+00
5.977863831999999711e+00 0.000000000000000000e+00 0.000000000000000000e+00 4.367661564999999690e+00 7.648183232000000054e+00 0.000000000000000000e+00 4.364744349000000412e+00 2.728745167000000027e+00 7.160074172999999931e+00
5.977863831999999711e+00 0.000000000000000000e+00 0.000000000000000000e+00 4.367661564999999690e+00 7.648183232000000054e+00 0.000000000000000000e+00 4.364744349000000412e+00 2.728745167000000027e+00 7.160074172999999931e+00
5.970061118000000278e+00 0.000000000000000000e+00 0.000000000000000000e+00 4.523188441000000282e+00 7.446895427000000289e+00 0.000000000000000000e+00 4.454760077999999623e+00 2.390565268000000021e+00 6.998791019999999641e+00
5.970061118000000278e+00 0.000000000000000000e+00 0.000000000000000000e+00 4.523188441000000282e+00 7.446895427000000289e+00 0.000000000000000000e+00 4.454760077999999623e+00 2.390565268000000021e+00 6.998791019999999641e+00
5.810388610000000398e+00 0.000000000000000000e+00 0.000000000000000000e+00 4.291126631000000025e+00 7.620688097999999577e+00 0.000000000000000000e+00 4.425291048000000060e+00 2.564343951000000121e+00 6.951997641000000172e+00
5.810388610000000398e+00 0.000000000000000000e+00 0.000000000000000000e+00 4.291126631000000025e+00 7.620688097999999577e+00 0.000000000000000000e+00 4.425291048000000060e+00 2.564343951000000121e+00 6.951997641000000172e+00
5.751639541000000300e+00 0.000000000000000000e+00 0.000000000000000000e+00 4.412689689999999665e+00 7.664744332999999799e+00 0.000000000000000000e+00 4.462217587999999679e+00 2.533934232000000009e+00 7.053421488999999767e+00
5.751639541000000300e+00 0.000000000000000000e+00 0.000000000000000000e+00 4.412689689999999665e+00 7.664744332999999799e+00 0.000000000000000000e+00 4.462217587999999679e+00 2.533934232000000009e+00 7.053421488999999767e+00
5.935991952000000182e+00 0.000000000000000000e+00 0.000000000000000000e+00 4.407126902999999984e+00 7.657773403000000201e+00 0.000000000000000000e+00 4.539301054000000057e+00 2.341103774000000026e+00 7.276745051999999880e+00
5.935991952000000182e+00 0.000000000000000000e+00 0.000000000000000000e+00 4.407126902999999984e+00 7.657773403000000201e+00 0.000000000000000000e+00 4.539301054000000057e+00 2.341103774000000026e+00 7.276745051999999880e+00
5.933209512000000352e+00 0.000000000000000000e+00 0.000000000000000000e+00 4.524219892999999715e+00 7.632067005999999765e+00 0.000000000000000000e+00 4.620709617000000158e+00 2.716180232000000139e+00 7.355202998000000214e+00
5.933209512000000352e+00 0.000000000000000000e+00 0.000000000000000000e+00 4.524219892999999715e+00 7.632067005999999765e+00 0.000000000000000000e+00 4.620709617000000158e+00 2.716180232000000139e+00 7.355202998000000214e+00
5.758818522000000328e+00 0.000000000000000000e+00 0.000000000000000000e+00 4.159907357999999888e+00 7.497120037000000181e+00 0.000000000000000000e+00 4.373788302000000350e+00 2.437336410999999980e+00 7.019720638999999984e+00
5.758818522000000328e+00 0.000000000000000000e+00 0.000000000000000000e+00 4.159907357999999888e+00 7.497120037000000181e+00 0.000000000000000000e+00 4.373788302000000350e+00 2.437336410999999980e+00 7.019720638999999984e+00
5.677920333000000319e+00 0.000000000000000000e+00 0.000000000000000000e+00 4.376435228000000066e+00 7.503936187999999952e+00 0.000000000000000000e+00 4.346515832999999773e+00 2.397287410000000119e+00 7.224443338000000381e+00
5.677920333000000319e+00 0.000000000000000000e+00 0.000000000000000000e+00 4.376435228000000066e+00 7.503936187999999952e+00 0.000000000000000000e+00 4.346515832999999773e+00 2.397287410000000119e+00 7.224443338000000381e+00
5.888827998000000008e+00 0.000000000000000000e+00 0.000000000000000000e+00 4.435145172000000358e+00 7.522642616999999809e+00 0.000000000000000000e+00 4.346058907999999832e+00 2.343317314000000096e+00 7.137939044000000344e+00
5.888827998000000008e+00 0.000000000000000000e+00 0.000000000000000000e+00 4.435145172000000358e+00 7.522642616999999809e+00 0.000000000000000000e+00 4.346058907999999832e+00 2.343317314000000096e+00 7.137939044000000344e+00
5.677062181000000152e+00 0.000000000000000000e+00 0.000000000000000000e+00 4.466952998000000008e+00 7.453700758000000093e+00 0.000000000000000000e+00 4.494758090999999567e+00 2.387091618999999998e+00 7.059214019999999756e+00
5.677062181000000152e+00 0.000000000000000000e+00 0.000000000000000000e+00 4.466952998000000008e+00 7.453700758000000093e+00 0.000000000000000000e+00 4.494758090999999567e+00 2.387091618999999998e+00 7.059214019999999756e+00
5.983713177000000272e+00 0.000000000000000000e+00 0.000000000000000000e+00 4.696736074000000372e+00 7.579447556999999946e+00 0.000000000000000000e+00 4.706136380000000230e+00 2.458776537999999956e+00 7.086562728999999727e+00
5.983713177000000272e+00 0.000000000000000000e+00 0.000000000000000000e+00 4.696736074000000372e+00 7.579447556999999946e+00 0.000000000000000000e+00 4.706136380000000230e+00 2.458776537999999956e+00 7.086562728999999727e+00
5.730650430999999934e+00 0.000000000000000000e+00 0.000000000000000000e+00 4.493719742999999767e+00 7.708650046999999894e+00 0.000000000000000000e+00 4.231182143999999923e+00 2.379808274000000168e+00 7.133612910000000085e+00
5.730650430999999934e+00 0.000000000000000000e+00 0.000000000000000000e+00 4.493719742999999767e+00 7.708650046999999894e+00 0.000000000000000000e+00 4.231182143999999923e+00 2.379808274000000168e+00 7.133612910000000085e+00
5.671807872999999667e+00 0.000000000000000000e+00 0.000000000000000000e+00 4.088246134000000254e+00 7.448539540999999709e+00 0.000000000000000000e+00 4.260498332000000055e+00 2.560304476999999856e+00 7.282102206000000244e+00
5.671807872999999667e+00 0.000000000000000000e+00 0.000000000000000000e+00 4.088246134000000254e+00 7.448539540999999709e+00 0.000000000000000000e+00 4.260498332000000055e+00 2.560304476999999856e+00 7.282102206000000244e+00
5.934477388000000353e+00 0.000000000000000000e+00 0.000000000000000000e+00 4.598318927000000222e+00 7.471079115000000215e+00 0.000000000000000000e+00 4.653900039999999905e+00 2.311385621999999973e+00 7.145423801999999824e+00
5.934477388000000353e+00 0.000000000000000000e+00 0.000000000000000000e+00 4.598318927000000222e+00 7.471079115000000215e+00 0.000000000000000000e+00 4.653900039999999905e+00 2.311385621999999973e+00 7.145423801999999824e+00
5.916946475999999677e+00 0.000000000000000000e+00 0.000000000000000000e+00 4.348195216999999779e+00 7.476393933999999852e+00 0.000000000000000000e+00 4.584930567999999873e+00 2.674325995999999872e+00 7.170042565000000145e+00
5.916946475999999677e+00 0.000000000000000000e+00 0.000000000000000000e+00 4.348195216999999779e+00 7.476393933999999852e+00 0.000000000000000000e+00 4.584930567999999873e+00 2.674325995999999872e+00 7.170042565000000145e+00
5.683830913000000429e+00 0.000000000000000000e+00 0.000000000000000000e+00 4.376457453000000442e+00 7.704577125000000137e+00 0.000000000000000000e+00 4.227433843000000024e+00 2.625403121000000173e+00 7.016960335000000271e+00
5.683830913000000429e+00 0.000000000000000000e+00 0.000000000000000000e+00 4.376457453000000442e+00 7.704577125000000137e+00 0.000000000000000000e+00 4.227433843000000024e+00 2.625403121000000173e+00 7.016960335000000271e+00
5.749611776000000063e+00 0.000000000000000000e+00 0.000000000000000000e+00 4.131411714999999596e+00 7.757251768999999797e+00 0.000000000000000000e+00 4.141349790999999669e+00 2.433588156999999974e+00 7.224548558999999592e+00
5.749611776000000063e+00 0.000000000000000000e+00 0.000000000000000000e+00 4.131411714999999596e+00 7.757251768999999797e+00 0.000000000000000000e+00 4.141349790999999669e+00 2.433588156999999974e+00 7.224548558999999592e+00
5.718594644000000393e+00 0.000000000000000000e+00 0.000000000000000000e+00 4.119898351999999875e+00 7.536361560999999654e+00 0.000000000000000000e+00 4.363775694000000094e+00 2.528423183000000130e+00 7.009002547999999777e+00
5.718594644000000393e+00 0.000000000000000000e+00 0.000000000000000000e+00 4.119898351999999875e+00 7.536361560999999654e+00 0.000000000000000000e+00 4.363775694000000094e+00 2.528423183000000130e+00 7.009002547999999777e+00
5.965300598999999870e+00 0.000000000000000000e+00 0.000000000000000000e+00 4.646599553999999799e+00 7.393633018000000057e+00 0.000000000000000000e+00 4.714522957999999875e+00 2.384770279000000048e+00 7.118403596000000277e+00
5.965300598999999870e+00 0.000000000000000000e+00 0.000000000000000000e+00 4.646599553999999799e+00 7.393633018000000057e+00 0.000000000000000000e+00 4.714522957999999875e+00 2.384770279000000048e+00 7.118403596000000277e+00
5.833408681999999956e+00 0.000000000000000000e+00 0.000000000000000000e+00 4.421631438000000358e+00 7.448527194999999601e+00 0.000000000000000000e+00 4.213735835999999679e+00 2.665019726999999783e+00 7.045965211999999589e+00
5.833408681999999956e+00 0.000000000000000000e+00 0.000000000000000000e+00 4.421631438000000358e+00 7.448527194999999601e+00 0.000000000000000000e+00 4.213735835999999679e+00 2.665019726999999783e+00 7.045965211999999589e+00
5.936594745999999923e+00 0.000000000000000000e+00 0.000000000000000000e+00 4.347398355000000159e+00 7.636742948000000197e+00 0.000000000000000000e+00 4.298127938000000370e+00 2.358775209000000039e+00 7.202301162000000367e+00
5.936594745999999923e+00 0.000000000000000000e+00 0.000000000000000000e+00 4.347398355000000159e+00 7.636742948000000197e+00 0.000000000000000000e+00 4.298127938000000370e+00 2.358775209000000039e+00 7.202301162000000367e+00
5.903482807999999693e+00 0.000000000000000000e+00 0.000000000000000000e+00 4.315673333000000333e+00 7.575996447999999717e+00 0.000000000000000000e+00 4.581909067999999863e+00 2.715569996999999791e+00 7.015301460999999961e+00
5.903482807999999693e+00 0.000000000000000000e+00 0.000000000000000000e+00 4.315673333000000333e+00 7.575996447999999717e+00 0.000000000000000000e+00 4.581909067999999863e+00 2.715569996999999791e+00 7.015301460999999961e+00
5.863949917000000234e+00 0.000000000000000000e+00 0.000000000000000000e+00 4.411414192999999706e+00 7.420568936999999643e+00 0.000000000000000000e+00 4.284022154999999721e+00 2.492006229999999878e+00 7.166652737999999800e+00
5.863949917000000234e+00 0.000000000000000000e+00 0.000000000000000000e+00 4.411414192999999706e+00 7.420568936999999643e+00 0.000000000000000000e+00 4.284022154999999721e+00 2.492006229999999878e+00 7.166652737999999800e+00
5.706503451999999754e+00 0.000000000000000000e+00 0.000000000000000000e+00 4.131158841999999609e+00 7.450662636999999755e+00 0.000000000000000000e+00 4.144094276999999771e+00 2.472138979999999986e+00 7.096593569999999573e+00
5.706503451999999754e+00 0.000000000000000000e+00 0.000000000000000000e+00 4.131158841999999609e+00 7.450662636999999755e+00 0.000000000000000000e+00 4.144094276999999771e+00 2.472138979999999986e+00 7.096593569999999573e+00
6.024241299999999910e+00 0.000000000000000000e+00 0.000000000000000000e+00 4.518181219999999776e+00 7.825718460000000043e+00 0.000000000000000000e+00 4.518181219999999776e+00 2.608572820000000014e+00 7.378158339999999704e+00
6.024241299999999910e+00 0.000000000000000000e+00 0.000000000000000000e+00 4.518181219999999776e+00 7.825718460000000043e+00 0.000000000000000000e+00 4.518181219999999776e+00 2.608572820000000014e+00 7.378158339999999704e+00
6.068528377999999890e+00 0.000000000000000000e+00 0.000000000000000000e+00 4.747176504999999658e+00 7.985077951000000063e+00 0.000000000000000000e+00 4.454924343000000064e+00 2.614227368999999968e+00 7.260464654999999823e+00
6.068528377999999890e+00 0.000000000000000000e+00 0.000000000000000000e+00 4.747176504999999658e+00 7.985077951000000063e+00 0.000000000000000000e+00 4.454924343000000064e+00 2.614227368999999968e+00 7.260464654999999823e+00
6.041072791000000386e+00 0.000000000000000000e+00 0.000000000000000000e+00 4.590031849999999913e+00 7.783329818000000344e+00 0.000000000000000000e+00 4.757068517999999635e+00 2.455865329999999958e+00 7.189297406999999751e+00
6.041072791000000386e+00 0.000000000000000000e+00 0.000000000000000000e+00 4.590031849999999913e+00 7.783329818000000344e+00 0.000000000000000000e+00 4.757068517999999635e+00 2.455865329999999958e+00 7.189297406999999751e+00
5.848764590000000041e+00 0.000000000000000000e+00 0.000000000000000000e+00 4.531656041999999829e+00 7.644537255999999559e+00 0.000000000000000000e+00 4.439118149999999652e+00 2.686900268000000036e+00 7.195065990999999883e+00
5.848764590000000041e+00 0.000000000000000000e+00 0.000000000000000000e+00 4.531656041999999829e+00 7.644537255999999559e+00 0.000000000000000000e+00 4.439118149999999652e+00 2.686900268000000036e+00 7.195065990999999883e+00
5.847880911999999931e+00 0.000000000000000000e+00 0.000000000000000000e+00 4.249792595999999811e+00 7.727836364999999930e+00 0.000000000000000000e+00 4.169966503000000380e+00 2.366546272999999978e+00 7.178345113999999860e+00
5.847880911999999931e+00 0.000000000000000000e+00 0.000000000000000000e+00 4.249792595999999811e+00 7.727836364999999930e+00 0.000000000000000000e+00 4.169966503000000380e+00 2.366546272999999978e+00 7.178345113999999860e+00
5.902517406000000300e+00 0.000000000000000000e+00 0.000000000000000000e+00 4.576300972000000300e+00 8.025045884000000740e+00 0.000000000000000000e+00 4.266716124000000221e+00 2.727706809999999926e+00 7.171321588999999719e+00
5.902517406000000300e+00 0.000000000000000000e+00 0.000000000000000000e+00 4.576300972000000300e+00 8.025045884000000740e+00 0.000000000000000000e+00 4.266716124000000221e+00 2.727706809999999926e+00 7.171321588999999719e+00
6.121877849999999732e+00 0.000000000000000000e+00 0.000000000000000000e+00 4.801777502000000197e+00 7.888113866000000307e+00 0.000000000000000000e+00 4.521247322999999874e+00 2.591242192000000166e+00 7.444282293999999744e+00
6.121877849999999732e+00 0.000000000000000000e+00 0.000000000000000000e+00 4.801777502000000197e+00 7.888113866000000307e+00 0.000000000000000000e+00 4.521247322999999874e+00 2.591242192000000166e+00 7.444282293999999744e+00
5.919316706000000039e+00 0.000000000000000000e+00 0.000000000000000000e+00 4.631488837000000025e+00 7.950905559999999817e+00 0.000000000000000000e+00 4.686554025999999595e+00 2.679866407000000006e+00 7.232709427999999718e+00
5.919316706000000039e+00 0.000000000000000000e+00 0.000000000000000000e+00 4.631488837000000025e+00 7.950905559999999817e+00 0.000000000000000000e+00 4.686554025999999595e+00 2.679866407000000006e+00 7.232709427999999718e+00
5.930408179999999696e+00 0.000000000000000000e+00 0.000000000000000000e+00 4.549615099999999579e+00 7.957585573000000245e+00 0.000000000000000000e+00 4.426479928000000008e+00 2.572350208000000027e+00 7.386512555999999563e+00
5.930408179999999696e+00 0.000000000000000000e+00 0.000000000000000000e+00 4.549615099999999579e+00 7.957585573000000245e+00 0.000000000000000000e+00 4.426479928000000008e+00 2.572350208000000027e+00 7.386512555999999563e+00
6.089627540999999589e+00 0.000000000000000000e+00 0.000000000000000000e+00 4.410244802000000242e+00 7.798218791000000039e+00 0.000000000000000000e+00 4.522246559000000055e+00 2.691382555000000121e+00 7.431761834999999650e+00
6.089627540999999589e+00 0.000000000000000000e+00 0.000000000000000000e+00 4.410244802000000242e+00 7.798218791000000039e+00 0.000000000000000000e+00 4.522246559000000055e+00 2.691382555000000121e+00 7.431761834999999650e+00
6.119380535000000343e+00 0.000000000000000000e+00 0.000000000000000000e+00 4.578103796999999808e+00 7.709906746999999783e+00 0.000000000000000000e+00 4.667096524999999829e+00 2.553258036999999980e+00 7.504146073000000250e+00
6.119380535000000343e+00 0.000000000000000000e+00 0.000000000000000000e+00 4.578103796999999808e+00 7.709906746999999783e+00 0.000000000000000000e+00 4.667096524999999829e+00 2.553258036999999980e+00 7.504146073000000250e+00
6.177783307000000335e+00 0.000000000000000000e+00 0.000000000000000000e+00 4.829619528000000273e+00 7.862412554999999692e+00 0.000000000000000000e+00 4.516919138999999639e+00 2.555469803999999900e+00 7.254502815000000382e+00
6.177783307000000335e+00 0.000000000000000000e+00 0.000000000000000000e+00 4.829619528000000273e+00 7.862412554999999692e+00 0.000000000000000000e+00 4.516919138999999639e+00 2.555469803999999900e+00 7.254502815000000382e+00
5.903653019000000057e+00 0.000000000000000000e+00 0.000000000000000000e+00 4.239904064000000083e+00 7.804278745999999600e+00 0.000000000000000000e+00 4.176473879999999639e+00 2.720479652999999942e+00 7.198763632000000356e+00
5.903653019000000057e+00 0.000000000000000000e+00 0.000000000000000000e+00 4.239904064000000083e+00 7.804278745999999600e+00 0.000000000000000000e+00 4.176473879999999639e+00 2.720479652999999942e+00 7.198763632000000356e+00
6.146347114000000111e+00 0.000000000000000000e+00 0.000000000000000000e+00 4.401605589999999957e+00 7.796123513999999588e+00 0.000000000000000000e+00 4.752843651000000058e+00 2.757526170999999859e+00 7.162455160999999570e+00
6.146347114000000111e+00 0.000000000000000000e+00 0.000000000000000000e+00 4.401605589999999957e+00 7.796123513999999588e+00 0.000000000000000000e+00 4.752843651000000058e+00 2.757526170999999859e+00 7.162455160999999570e+00
5.881304024000000297e+00 0.000000000000000000e+00 0.000000000000000000e+00 4.319892217999999673e+00 7.980495462000000373e+00 0.000000000000000000e+00 4.219457418000000182e+00 2.672425034000000199e+00 7.523004204000000250e+00
5.881304024000000297e+00 0.000000000000000000e+00 0.000000000000000000e+00 4.319892217999999673e+00 7.980495462000000373e+00 0.000000000000000000e+00 4.219457418000000182e+00 2.672425034000000199e+00 7.523004204000000250e+00
5.855881091999999732e+00 0.000000000000000000e+00 0.000000000000000000e+00 4.355891570999999907e+00 7.937433289000000336e+00 0.000000000000000000e+00 4.249373560000000438e+00 2.518074948000000202e+00 7.540161547000000297e+00
5.855881091999999732e+00 0.000000000000000000e+00 0.000000000000000000e+00 4.355891570999999907e+00 7.937433289000000336e+00 0.000000000000000000e+00 4.249373560000000438e+00 2.518074948000000202e+00 7.540161547000000297e+00
5.859459430000000246e+00 0.000000000000000000e+00 0.000000000000000000e+00 4.501439653000000263e+00 8.057457804000000223e+00 0.000000000000000000e+00 4.638111074000000222e+00 2.676751129999999979e+00 7.439323469999999716e+00
5.859459430000000246e+00 0.000000000000000000e+00 0.000000000000000000e+00 4.501439653000000263e+00 8.057457804000000223e+00 0.000000000000000000e+00 4.638111074000000222e+00 2.676751129999999979e+00 7.439323469999999716e+00
6.123741132000000142e+00 0.000000000000000000e+00 0.000000000000000000e+00 4.750097774000000328e+00 7.800796335000000248e+00 0.000000000000000000e+00 4.449188047999999895e+00 2.551079974999999944e+00 7.500325802999999958e+00
6.123741132000000142e+00 0.000000000000000000e+00 0.000000000000000000e+00 4.750097774000000328e+00 7.800796335000000248e+00 0.000000000000000000e+00 4.449188047999999895e+00 2.551079974999999944e+00 7.500325802999999958e+00
6.067667318999999893e+00 0.000000000000000000e+00 0.000000000000000000e+00 4.667429571000000443e+00 7.766251271999999872e+00 0.000000000000000000e+00 4.728964043000000395e+00 2.407431423999999875e+00 7.379220201999999951e+00
6.067667318999999893e+00 0.000000000000000000e+00 0.000000000000000000e+00 4.667429571000000443e+00 7.766251271999999872e+00 0.000000000000000000e+00 4.728964043000000395e+00 2.407431423999999875e+00 7.379220201999999951e+00
6.130183685999999632e+00 0.000000000000000000e+00 0.000000000000000000e+00 4.616955305000000287e+00 8.010336909999999477e+00 0.000000000000000000e+00 4.431735243000000324e+00 2.482699864000000201e+00 7.405764837999999628e+00
6.130183685999999632e+00 0.000000000000000000e+00 0.000000000000000000e+00 4.616955305000000287e+00 8.010336909999999477e+00 0.000000000000000000e+00 4.431735243000000324e+00 2.482699864000000201e+00 7.405764837999999628e+00
6.165210177999999708e+00 0.000000000000000000e+00 0.000000000000000000e+00 4.398889637999999991e+00 7.799180373999999638e+00 0.000000000000000000e+00 4.658359167999999606e+00 2.567028189999999821e+00 7.402305980999999591e+00
6.165210177999999708e+00 0.000000000000000000e+00 0.000000000000000000e+00 4.398889637999999991e+00 7.799180373999999638e+00 0.000000000000000000e+00 4.658359167999999606e+00 2.567028189999999821e+00 7.402305980999999591e+00
6.096662302000000366e+00 0.000000000000000000e+00 0.000000000000000000e+00 4.542252097999999627e+00 8.052377796000000032e+00 0.000000000000000000e+00 4.374029554999999903e+00 2.780545384999999925e+00 7.168217022000000327e+00
6.096662302000000366e+00 0.000000000000000000e+00 0.000000000000000000e+00 4.542252097999999627e+00 8.052377796000000032e+00 0.000000000000000000e+00 4.374029554999999903e+00 2.780545384999999925e+00 7.168217022000000327e+00
5.992617130000000181e+00 0.000000000000000000e+00 0.000000000000000000e+00 4.288070214000000213e+00 7.808964551999999948e+00 0.000000000000000000e+00 4.417172067000000091e+00 2.507273983999999789e+00 7.338681744999999701e+00
5.992617130000000181e+00 0.000000000000000000e+00 0.000000000000000000e+00 4.288070214000000213e+00 7.808964551999999948e+00 0.000000000000000000e+00 4.417172067000000091e+00 2.507273983999999789e+00 7.338681744999999701e+00
6.106740285999999962e+00 0.000000000000000000e+00 0.000000000000000000e+00 4.479834062000000117e+00 7.727589400000000275e+00 0.000000000000000000e+00 4.754462636999999603e+00 2.610595317000000026e+00 7.478570818999999759e+00
6.106740285999999962e+00 0.000000000000000000e+00 0.000000000000000000e+00 4.479834062000000117e+00 7.727589400000000275e+00 0.000000000000000000e+00 4.754462636999999603e+00 2.610595317000000026e+00 7.478570818999999759e+00
5.948095098999999664e+00 0.000000000000000000e+00 0.000000000000000000e+00 4.655625599000000392e+00 7.745831003000000159e+00 0.000000000000000000e+00 4.693529743000000032e+00 2.631426595999999840e+00 7.227471643000000334e+00
5.948095098999999664e+00 0.000000000000000000e+00 0.000000000000000000e+00 4.655625599000000392e+00 7.745831003000000159e+00 0.000000000000000000e+00 4.693529743000000032e+00 2.631426595999999840e+00 7.227471643000000334e+00
5.890743772000000433e+00 0.000000000000000000e+00 0.000000000000000000e+00 4.482025399000000299e+00 7.836953664000000153e+00 0.000000000000000000e+00 4.533309099000000231e+00 2.805637119000000013e+00 7.403897050000000313e+00
5.890743772000000433e+00 0.000000000000000000e+00 0.000000000000000000e+00 4.482025399000000299e+00 7.836953664000000153e+00 0.000000000000000000e+00 4.533309099000000231e+00 2.805637119000000013e+00 7.403897050000000313e+00
6.063635989999999865e+00 0.000000000000000000e+00 0.000000000000000000e+00 4.784367933000000406e+00 8.003795552999999785e+00 0.000000000000000000e+00 4.804967096999999576e+00 2.707062359000000029e+00 7.410137055999999944e+00
6.063635989999999865e+00 0.000000000000000000e+00 0.000000000000000000e+00 4.784367933000000406e+00 8.003795552999999785e+00 0.000000000000000000e+00 4.804967096999999576e+00 2.707062359000000029e+00 7.410137055999999944e+00
6.052149471999999975e+00 0.000000000000000000e+00 0.000000000000000000e+00 4.369986235999999913e+00 7.778523889999999774e+00 0.000000000000000000e+00 4.346515211999999906e+00 2.662952398999999915e+00 7.444563606000000000e+00
6.052149471999999975e+00 0.000000000000000000e+00 0.000000000000000000e+00 4.369986235999999913e+00 7.778523889999999774e+00 0.000000000000000000e+00 4.346515211999999906e+00 2.662952398999999915e+00 7.444563606000000000e+00
6.180723434999999988e+00 0.000000000000000000e+00 0.000000000000000000e+00 4.417756842000000184e+00 8.047211777999999427e+00 0.000000000000000000e+00 4.744573877999999745e+00 2.892965901000000173e+00 7.412718876999999651e+00
6.180723434999999988e+00 0.000000000000000000e+00 0.000000000000000000e+00 4.417756842000000184e+00 8.047211777999999427e+00 0.000000000000000000e+00 4.744573877999999745e+00 2.892965901000000173e+00 7.412718876999999651e+00
6.133842650000000063e+00 0.000000000000000000e+00 0.000000000000000000e+00 4.681767155000000180e+00 8.036737103000000104e+00 0.000000000000000000e+00 4.716244331999999595e+00 2.804625772000000072e+00 7.194878419000000136e+00
6.133842650000000063e+00 0.000000000000000000e+00 0.000000000000000000e+00 4.681767155000000180e+00 8.036737103000000104e+00 0.000000000000000000e+00 4.716244331999999595e+00 2.804625772000000072e+00 7.194878419000000136e+00
6.147185000000000343e+00 0.000000000000000000e+00 0.000000000000000000e+00 4.610388999999999626e+00 7.985426999999999609e+00 0.000000000000000000e+00 4.610388999999999626e+00 2.661808999999999870e+00 7.528732999999999898e+00
6.147185000000000343e+00 0.000000000000000000e+00 0.000000000000000000e+00 4.610388999999999626e+00 7.985426999999999609e+00 0.000000000000000000e+00 4.610388999999999626e+00 2.661808999999999870e+00 7.528732999999999898e+00
6.113787014999999769e+00 0.000000000000000000e+00 0.000000000000000000e+00 4.587751749999999795e+00 8.039293541999999348e+00 0.000000000000000000e+00 4.808801115999999709e+00 2.767278530000000014e+00 7.594838782000000066e+00
6.113787014999999769e+00 0.000000000000000000e+00 0.000000000000000000e+00 4.587751749999999795e+00 8.039293541999999348e+00 0.000000000000000000e+00 4.808801115999999709e+00 2.767278530000000014e+00 7.594838782000000066e+00
6.320567641000000236e+00 0.000000000000000000e+00 0.000000000000000000e+00 4.621053442000000011e+00 7.838129163999999705e+00 0.000000000000000000e+00 4.534757806000000002e+00 2.815214753999999875e+00 7.402379700000000007e+00
6.320567641000000236e+00 0.000000000000000000e+00 0.000000000000000000e+00 4.621053442000000011e+00 7.838129163999999705e+00 0.000000000000000000e+00 4.534757806000000002e+00 2.815214753999999875e+00 7.402379700000000007e+00
6.268422376000000185e+00 0.000000000000000000e+00 0.000000000000000000e+00 4.901971567000000363e+00 7.769935201000000013e+00 0.000000000000000000e+00 4.606387531000000202e+00 2.695184074999999790e+00 7.476037830000000106e+00
6.268422376000000185e+00 0.000000000000000000e+00 0.000000000000000000e+00 4.901971567000000363e+00 7.769935201000000013e+00 0.000000000000000000e+00 4.606387531000000202e+00 2.695184074999999790e+00 7.476037830000000106e+00
6.238474427999999961e+00 0.000000000000000000e+00 0.000000000000000000e+00 4.590588373000000111e+00 7.767255245000000308e+00 0.000000000000000000e+00 4.763607830999999848e+00 2.415475070999999918e+00 7.609114030999999834e+00
6.238474427999999961e+00 0.000000000000000000e+00 0.000000000000000000e+00 4.590588373000000111e+00 7.767255245000000308e+00 0.000000000000000000e+00 4.763607830999999848e+00 2.415475070999999918e+00 7.609114030999999834e+00
6.071310138000000300e+00 0.000000000000000000e+00 0.000000000000000000e+00 4.673799524999999733e+00 8.213155697999999560e+00 0.000000000000000000e+00 4.398767564999999991e+00 2.648619735000000031e+00 7.403932455999999718e+00
6.071310138000000300e+00 0.000000000000000000e+00 0.000000000000000000e+00 4.673799524999999733e+00 8.213155697999999560e+00 0.000000000000000000e+00 4.398767564999999991e+00 2.648619735000000031e+00 7.403932455999999718e+00
6.152387394999999870e+00 0.000000000000000000e+00 0.000000000000000000e+00 4.726463027000000316e+00 7.895850907999999890e+00 0.000000000000000000e+00 4.660223524000000062e+00 2.517077453000000187e+00 7.436745343000000119e+00