1.459950000000000081e+00 8.428999999999999826e-01 5.960199999999999942e-01 2.919909999999999783e+00 1.685810000000000031e+00 2.980129999999999946e+00 4.379870000000000374e+00 2.528719999999999857e+00 5.364220000000000432e+00 2.919909999999999783e+00 3.371630000000000127e+00 5.960199999999999942e-01 4.379870000000000374e+00 4.214529999999999887e+00 2.980129999999999946e+00 5.839830000000000076e+00 5.057439999999999714e+00 5.364220000000000432e+00 4.379870000000000374e+00 5.900339999999999918e+00 5.960199999999999942e-01 5.839830000000000076e+00 6.743249999999999744e+00 2.980129999999999946e+00 7.299780000000000157e+00 7.586159999999999570e+00 5.364220000000000432e+00 4.379870000000000374e+00 8.428999999999999826e-01 5.960199999999999942e-01 5.839830000000000076e+00 1.685810000000000031e+00 2.980129999999999946e+00 7.299780000000000157e+00 2.528719999999999857e+00 5.364220000000000432e+00 5.839830000000000076e+00 3.371630000000000127e+00 5.960199999999999942e-01 7.299789999999999779e+00 4.214529999999999887e+00 2.980129999999999946e+00 8.759740000000000748e+00 5.057439999999999714e+00 5.364220000000000432e+00 7.299780000000000157e+00 5.900339999999999918e+00 5.960199999999999942e-01 8.759740000000000748e+00 6.743249999999999744e+00 2.980129999999999946e+00 1.021969999999999956e+01 7.586159999999999570e+00 5.364220000000000432e+00 0.000000000000000000e+00 0.000000000000000000e+00 0.000000000000000000e+00 1.459959999999999924e+00 8.429100000000000481e-01 2.384100000000000108e+00 2.919909999999999783e+00 1.685810000000000031e+00 4.768200000000000216e+00 1.459959999999999924e+00 2.528719999999999857e+00 0.000000000000000000e+00 2.919909999999999783e+00 3.371620000000000061e+00 2.384100000000000108e+00 4.379870000000000374e+00 4.214529999999999887e+00 4.768200000000000216e+00 2.919909999999999783e+00 5.057439999999999714e+00 0.000000000000000000e+00 4.379870000000000374e+00 5.900339999999999918e+00 2.384100000000000108e+00 5.839830000000000076e+00 6.743249999999999744e+00 4.768200000000000216e+00 2.919909999999999783e+00 0.000000000000000000e+00 0.000000000000000000e+00 4.379870000000000374e+00 8.429100000000000481e-01 2.384100000000000108e+00 5.839830000000000076e+00 1.685810000000000031e+00 4.768200000000000216e+00 4.379870000000000374e+00 2.528719999999999857e+00 0.000000000000000000e+00 5.839819999999999567e+00 3.371620000000000061e+00 2.384100000000000108e+00 7.299780000000000157e+00 4.214529999999999887e+00 4.768200000000000216e+00 5.839830000000000076e+00 5.057439999999999714e+00 0.000000000000000000e+00 7.299780000000000157e+00 5.900339999999999918e+00 2.384100000000000108e+00 8.759740000000000748e+00 6.743249999999999744e+00 4.768200000000000216e+00
1.456569999999999920e+00 8.406599999999999628e-01 5.951300000000000479e-01 2.917910000000000004e+00 1.684919999999999973e+00 2.977069999999999883e+00 4.378239999999999910e+00 2.528620000000000090e+00 5.367950000000000443e+00 2.920830000000000037e+00 3.371960000000000068e+00 5.910699999999999843e-01 4.379349999999999632e+00 4.213989999999999903e+00 2.984640000000000182e+00 5.837579999999999991e+00 5.054669999999999774e+00 5.364480000000000359e+00 4.378759999999999764e+00 5.899810000000000443e+00 5.951899999999999968e-01 5.840819999999999901e+00 6.741179999999999950e+00 2.978899999999999881e+00 7.300959999999999894e+00 7.586219999999999963e+00 5.365090000000000359e+00 4.376739999999999853e+00 8.432399999999999896e-01 5.959499999999999797e-01 5.839579999999999771e+00 1.683070000000000066e+00 2.979029999999999845e+00 7.299769999999999648e+00 2.531449999999999978e+00 5.362350000000000172e+00 5.840650000000000119e+00 3.370950000000000113e+00 5.975700000000000456e-01 7.297109999999999985e+00 4.214760000000000062e+00 2.981289999999999996e+00 8.761049999999999116e+00 5.054389999999999716e+00 5.362709999999999866e+00 7.299150000000000027e+00 5.901320000000000121e+00 5.967700000000000227e-01 8.759349999999999525e+00 6.743509999999999671e+00 2.979659999999999975e+00 1.022086999999999968e+01 7.589249999999999829e+00 5.364589999999999748e+00 1.022007999999999939e+01 7.586210000000000342e+00 3.119999999999999944e-03 1.462059999999999915e+00 8.440800000000000525e-01 2.384220000000000006e+00 8.760989999999999611e+00 1.688390000000000057e+00 4.768119999999999692e+00 1.167741999999999969e+01 5.059219999999999828e+00 7.151830000000000354e+00 2.921460000000000168e+00 3.373450000000000060e+00 2.384650000000000158e+00 4.383160000000000167e+00 4.214640000000000164e+00 4.768740000000000201e+00 8.758919999999999817e+00 5.058930000000000149e+00 6.999999999999999929e-04 1.021992000000000012e+01 5.901849999999999596e+00 2.384799999999999809e+00 5.840119999999999756e+00 6.743009999999999948e+00 4.768320000000000114e+00 1.167815000000000047e+01 1.011103999999999914e+01 7.149709999999999788e+00 4.378599999999999604e+00 8.435700000000000420e-01 2.385590000000000099e+00 1.022175000000000011e+01 9.269420000000000215e+00 4.770270000000000010e+00 4.377819999999999823e+00 2.527070000000000149e+00 1.139999999999999954e-03 5.837620000000000253e+00 3.373670000000000169e+00 2.383169999999999789e+00 7.300980000000000025e+00 4.213809999999999611e+00 4.766420000000000101e+00 1.022246999999999950e+01 7.586730000000000196e+00 7.151110000000000078e+00 7.300910000000000011e+00 5.900900000000000034e+00 2.385089999999999932e+00 8.759560000000000457e+00 6.741810000000000080e+00 4.765100000000000335e+00
1.414959999999999996e+00 8.122599999999999820e-01 6.132400000000000073e-01 2.781690000000000218e+00 1.573779999999999957e+00 3.057920000000000194e+00 4.159169999999999590e+00 2.334569999999999812e+00 5.517170000000000130e+00 2.865169999999999995e+00 3.304190000000000182e+00 6.112499999999999600e-01 4.231709999999999638e+00 4.071519999999999584e+00 3.061409999999999965e+00 5.610759999999999970e+00 4.825140000000000207e+00 5.516939999999999955e+00 4.318769999999999776e+00 5.794550000000000090e+00 6.164600000000000080e-01 5.684269999999999712e+00 6.557739999999999903e+00 3.061609999999999943e+00 7.061069999999999958e+00 7.316889999999999894e+00 5.516409999999999592e+00 4.254249999999999865e+00 8.058100000000000263e-01 6.107599999999999696e-01 5.619530000000000136e+00 1.574940000000000007e+00 3.066110000000000113e+00 7.000140000000000029e+00 2.331690000000000040e+00 5.525640000000000107e+00 5.709590000000000387e+00 3.301369999999999916e+00 6.085899999999999643e-01 7.077169999999999739e+00 4.063489999999999824e+00 3.063670000000000115e+00 8.446020000000000749e+00 4.821369999999999933e+00 5.520990000000000286e+00 7.162329999999999863e+00 5.793660000000000032e+00 6.138400000000000523e-01 8.529199999999999449e+00 6.557820000000000427e+00 3.071219999999999839e+00 9.898999999999999133e+00 7.319490000000000052e+00 5.507740000000000080e+00 8.465260000000000673e+00 9.753080000000000638e+00 7.352100000000000080e+00 5.723449999999999704e+00 8.235210000000000363e+00 2.451439999999999841e+00 2.748349999999999849e+00 1.526890000000000081e+00 4.898159999999999847e+00 5.566469999999999807e+00 4.769779999999999909e+00 7.355150000000000077e+00 2.823010000000000019e+00 3.251920000000000144e+00 2.451929999999999943e+00 4.196659999999999613e+00 4.014210000000000278e+00 4.903010000000000090e+00 1.269391000000000069e+01 7.259719999999999729e+00 7.351709999999999745e+00 4.273320000000000007e+00 5.743890000000000384e+00 2.452199999999999935e+00 1.132065000000000055e+01 6.503140000000000143e+00 4.896370000000000111e+00 6.957419999999999938e+00 2.281050000000000022e+00 7.351969999999999672e+00 4.211050000000000182e+00 7.607899999999999663e-01 2.449990000000000112e+00 5.579089999999999883e+00 1.526739999999999986e+00 4.908260000000000289e+00 4.291129999999999889e+00 2.494470000000000187e+00 1.820000000000000003e-03 5.656780000000000364e+00 3.252559999999999896e+00 2.444970000000000088e+00 7.036710000000000242e+00 4.010720000000000063e+00 4.902540000000000120e+00 9.855489999999999640e+00 7.259509999999999685e+00 7.352490000000000414e+00 7.118070000000000341e+00 5.744309999999999583e+00 2.447639999999999816e+00 8.485400000000000276e+00 6.503809999999999647e+00 4.904300000000000104e+00
1.414760000000000018e+00 8.144299999999999873e-01 6.139400000000000412e-01 2.781880000000000130e+00 1.571239999999999970e+00 3.059000000000000163e+00 4.155730000000000146e+00 2.335440000000000182e+00 5.512669999999999959e+00 2.867799999999999905e+00 3.305759999999999810e+00 6.125699999999999479e-01 4.232560000000000322e+00 4.071850000000000414e+00 3.060509999999999842e+00 5.612860000000000404e+00 4.823529999999999873e+00 5.520010000000000083e+00 4.315800000000000303e+00 5.793090000000000295e+00 6.166000000000000369e-01 5.682809999999999917e+00 6.555839999999999890e+00 3.064379999999999882e+00 7.058860000000000134e+00 7.320979999999999599e+00 5.513359999999999594e+00 4.253190000000000026e+00 8.072899999999999521e-01 6.123899999999999899e-01 5.616170000000000329e+00 1.574089999999999989e+00 3.065370000000000150e+00 6.997029999999999639e+00 2.334499999999999797e+00 5.528120000000000367e+00 5.712530000000000108e+00 3.302020000000000177e+00 6.094100000000000072e-01 7.075569999999999915e+00 4.067280000000000229e+00 3.061440000000000161e+00 8.446649999999999991e+00 4.819899999999999629e+00 5.519440000000000346e+00 7.162410000000000387e+00 5.795630000000000059e+00 6.150999999999999801e-01 8.530060000000000642e+00 6.556650000000000311e+00 3.070889999999999898e+00 9.899419999999999220e+00 7.323730000000000295e+00 5.506380000000000052e+00 1.414521000000000051e+01 9.753360000000000696e+00 7.353270000000000195e+00 1.140287999999999968e+01 8.234709999999999752e+00 2.451350000000000140e+00 2.748920000000000030e+00 1.524839999999999973e+00 4.898320000000000007e+00 1.124623000000000062e+01 4.771679999999999922e+00 7.354770000000000252e+00 8.502950000000000230e+00 3.252339999999999787e+00 2.451459999999999972e+00 4.200269999999999726e+00 4.013270000000000337e+00 4.902120000000000033e+00 7.013119999999999798e+00 7.256630000000000358e+00 7.350760000000000183e+00 9.953799999999999315e+00 5.745029999999999859e+00 2.451830000000000176e+00 5.641549999999999621e+00 6.500280000000000058e+00 4.895340000000000025e+00 1.130864000000000047e+01 9.754020000000000579e+00 7.350570000000000270e+00 8.564629999999999299e+00 8.235419999999999519e+00 2.452049999999999841e+00 5.580049999999999955e+00 1.530049999999999910e+00 4.910029999999999895e+00 4.291719999999999757e+00 2.492669999999999941e+00 3.170000000000000075e-03 5.656100000000000350e+00 3.251630000000000020e+00 2.444710000000000161e+00 7.037010000000000431e+00 4.009809999999999874e+00 4.903620000000000090e+00 9.854119999999999990e+00 7.257950000000000124e+00 7.353570000000000384e+00 7.117350000000000065e+00 5.747279999999999944e+00 2.446899999999999853e+00 8.486969999999999459e+00 6.504430000000000156e+00 4.901919999999999611e+00
1.421570000000000000e+00 8.544899999999999718e-01 5.808400000000000230e-01 2.836850000000000094e+00 1.743819999999999926e+00 2.909009999999999874e+00 4.243260000000000254e+00 2.631590000000000096e+00 5.239779999999999660e+00 2.818200000000000038e+00 3.377549999999999830e+00 5.866299999999999848e-01 4.237090000000000245e+00 4.273489999999999789e+00 2.903249999999999886e+00 5.650299999999999656e+00 5.156089999999999840e+00 5.235350000000000392e+00 4.220799999999999663e+00 5.901180000000000092e+00 5.808900000000000174e-01 5.635019999999999918e+00 6.792539999999999800e+00 2.907900000000000151e+00 7.049579999999999735e+00 7.682479999999999976e+00 5.236189999999999678e+00 4.293739999999999668e+00 8.534800000000000164e-01 5.815500000000000114e-01 5.712900000000000311e+00 1.738650000000000029e+00 2.906480000000000175e+00 7.121839999999999726e+00 2.627470000000000194e+00 5.241869999999999585e+00 5.697160000000000224e+00 3.381479999999999819e+00 5.787499999999999867e-01 7.103539999999999743e+00 4.268229999999999968e+00 2.905069999999999819e+00 8.519360000000000710e+00 5.156559999999999810e+00 5.236749999999999794e+00 7.089780000000000193e+00 5.905540000000000234e+00 5.870400000000000063e-01 8.502409999999999357e+00 6.785899999999999821e+00 2.901780000000000026e+00 9.923730000000000828e+00 7.677030000000000243e+00 5.230819999999999581e+00 9.980270000000000863e+00 2.667479999999999851e+00 6.975249999999999950e+00 5.615099999999999980e+00 8.461660000000000181e+00 2.326680000000000081e+00 2.829979999999999940e+00 1.779689999999999994e+00 4.654650000000000176e+00 5.643670000000000186e+00 5.192520000000000024e+00 6.979630000000000223e+00 2.816209999999999880e+00 3.414489999999999803e+00 2.326540000000000052e+00 9.965149999999999508e+00 4.307419999999999582e+00 4.648399999999999643e+00 8.543730000000000047e+00 5.050189999999999735e+00 2.139999999999999975e-03 4.215139999999999887e+00 5.934330000000000105e+00 2.327570000000000139e+00 1.136879000000000062e+01 6.827700000000000102e+00 4.654580000000000162e+00 7.113150000000000084e+00 2.669220000000000148e+00 6.979239999999999888e+00 8.482829999999999870e+00 8.459279999999999688e+00 2.331459999999999866e+00 9.903460000000000818e+00 9.348489999999999966e+00 4.645999999999999908e+00 8.512639999999999318e+00 5.192999999999999616e+00 6.979940000000000033e+00 5.683099999999999596e+00 3.417809999999999793e+00 2.333670000000000133e+00 7.099820000000000242e+00 4.303350000000000009e+00 4.653369999999999784e+00 9.914509999999999934e+00 7.717369999999999841e+00 6.979980000000000295e+00 7.082089999999999996e+00 5.933029999999999582e+00 2.322330000000000005e+00 8.496159999999999712e+00 6.824110000000000120e+00 4.650669999999999860e+00
1.421699999999999964e+00 8.535300000000000109e-01 5.853300000000000169e-01 2.838649999999999896e+00 1.745300000000000074e+00 2.906330000000000080e+00 4.245129999999999626e+00 2.632150000000000212e+00 5.242149999999999643e+00 2.817149999999999821e+00 3.380300000000000082e+00 5.870100000000000318e-01 4.237210000000000143e+00 4.275269999999999904e+00 2.898890000000000189e+00 5.649740000000000428e+00 5.154200000000000337e+00 5.237930000000000419e+00 4.221250000000000391e+00 5.902040000000000397e+00 5.766499999999999959e-01 5.631660000000000110e+00 6.790589999999999904e+00 2.909170000000000034e+00 7.050049999999999706e+00 7.685579999999999856e+00 5.240590000000000082e+00 4.292119999999999713e+00 8.538499999999999979e-01 5.794799999999999951e-01 5.716219999999999857e+00 1.739300000000000068e+00 2.903830000000000133e+00 7.120759999999999756e+00 2.625939999999999941e+00 5.239029999999999632e+00 5.696659999999999613e+00 3.379529999999999923e+00 5.799600000000000311e-01 7.105990000000000251e+00 4.265010000000000190e+00 2.902690000000000214e+00 8.520730000000000359e+00 5.159239999999999604e+00 5.237330000000000041e+00 7.087320000000000064e+00 5.901469999999999771e+00 5.883500000000000396e-01 8.502739999999999299e+00 6.786059999999999981e+00 2.899519999999999875e+00 9.921689999999999898e+00 7.673790000000000333e+00 5.228480000000000238e+00 9.979390000000000427e+00 2.668899999999999828e+00 6.975649999999999906e+00 1.415110000000000090e+00 8.905199999999999783e-01 2.326799999999999979e+00 7.031780000000000364e+00 9.350030000000000285e+00 4.654160000000000075e+00 1.402169999999999916e+00 2.524220000000000130e+00 1.229999999999999974e-03 8.555619999999999337e+00 3.415039999999999853e+00 2.325309999999999988e+00 9.962529999999999220e+00 4.307369999999999699e+00 4.649219999999999686e+00 2.801569999999999894e+00 5.048860000000000348e+00 1.399999999999999986e-03 4.216239999999999988e+00 5.935469999999999580e+00 2.326070000000000082e+00 1.136965000000000003e+01 6.827289999999999637e+00 4.655339999999999812e+00 2.871929999999999872e+00 1.010000000000000047e-03 1.709999999999999932e-03 8.481759999999999522e+00 8.460340000000000416e+00 2.330389999999999961e+00 9.901059999999999306e+00 9.347569999999999268e+00 4.644770000000000287e+00 4.268609999999999793e+00 2.522920000000000051e+00 2.670000000000000064e-03 5.683119999999999727e+00 3.418140000000000178e+00 2.332879999999999843e+00 7.100920000000000343e+00 4.303919999999999746e+00 4.652129999999999654e+00 9.915369999999999351e+00 7.719780000000000086e+00 6.980000000000000426e+00 7.082390000000000185e+00 5.931569999999999787e+00 2.323259999999999881e+00 8.497889999999999944e+00 6.825470000000000148e+00 4.652840000000000309e+00
1.432989999999999986e+00 8.616899999999999560e-01 5.805500000000000105e-01 2.832209999999999894e+00 1.685640000000000027e+00 2.901609999999999800e+00 4.216429999999999900e+00 2.512070000000000025e+00 5.225069999999999659e+00 2.855170000000000208e+00 3.447560000000000180e+00 5.822199999999999598e-01 4.242110000000000269e+00 4.276930000000000121e+00 2.896650000000000169e+00 5.639840000000000408e+00 5.105489999999999640e+00 5.224840000000000373e+00 4.284830000000000361e+00 6.038730000000000153e+00 5.856099999999999639e-01 5.670410000000000394e+00 6.873599999999999710e+00 2.899760000000000115e+00 7.064029999999999809e+00 7.693990000000000329e+00 5.220500000000000362e+00 4.376319999999999766e+00 8.540499999999999758e-01 5.795200000000000351e-01 5.769549999999999734e+00 1.682779999999999943e+00 2.906499999999999861e+00 7.157009999999999650e+00 2.518790000000000084e+00 5.226880000000000415e+00 5.794940000000000424e+00 3.447970000000000201e+00 5.816599999999999548e-01 7.189869999999999983e+00 4.271749999999999936e+00 2.901069999999999816e+00 8.580550000000000566e+00 5.104519999999999946e+00 5.223449999999999704e+00 7.217209999999999681e+00 6.034220000000000361e+00 5.738299999999999512e-01 8.610590000000000188e+00 6.867219999999999658e+00 2.905580000000000052e+00 1.000046999999999997e+01 7.689709999999999823e+00 5.220710000000000406e+00 4.174229999999999663e+00 2.490749999999999797e+00 6.959859999999999935e+00 7.266269999999999563e+00 8.310400000000000009e-01 2.322270000000000056e+00 7.048079999999999679e+00 9.430619999999999337e+00 4.645590000000000330e+00 1.146315000000000062e+01 5.084830000000000183e+00 6.964599999999999902e+00 8.682240000000000180e+00 3.417129999999999779e+00 2.315459999999999852e+00 4.204649999999999999e+00 4.250630000000000130e+00 4.638880000000000337e+00 1.289062999999999981e+01 7.671780000000000044e+00 6.965830000000000410e+00 4.235240000000000116e+00 6.010699999999999932e+00 2.321959999999999802e+00 1.149695000000000000e+01 6.844669999999999810e+00 4.640869999999999607e+00 7.112720000000000375e+00 2.494600000000000151e+00 6.963759999999999728e+00 4.331459999999999866e+00 8.323000000000000398e-01 2.324320000000000164e+00 9.978899999999999437e+00 9.429679999999999396e+00 4.638320000000000221e+00 8.524290000000000589e+00 5.086140000000000327e+00 6.962340000000000195e+00 5.748170000000000002e+00 3.424440000000000150e+00 2.325699999999999878e+00 7.134669999999999845e+00 4.248759999999999870e+00 4.647160000000000402e+00 5.782589999999999897e+00 5.186230000000000118e+00 5.570000000000000298e-03 7.177340000000000053e+00 6.006520000000000081e+00 2.318080000000000140e+00 8.553879999999999484e+00 6.845419999999999838e+00 4.648369999999999891e+00
1.431349999999999900e+00 8.623199999999999754e-01 5.791100000000000136e-01 2.831799999999999873e+00 1.686600000000000099e+00 2.902670000000000083e+00 4.216079999999999828e+00 2.512030000000000207e+00 5.227389999999999759e+00 2.857190000000000119e+00 3.448690000000000033e+00 5.794300000000000006e-01 4.241789999999999949e+00 4.275669999999999860e+00 2.896650000000000169e+00 5.642879999999999896e+00 5.103970000000000340e+00 5.226230000000000153e+00 4.284650000000000070e+00 6.037880000000000358e+00 5.841300000000000381e-01 5.673569999999999780e+00 6.874530000000000030e+00 2.896370000000000111e+00 7.065870000000000317e+00 7.698190000000000310e+00 5.219179999999999708e+00 4.374200000000000088e+00 8.545500000000000318e-01 5.811600000000000099e-01 5.765780000000000349e+00 1.681030000000000024e+00 2.904749999999999943e+00 7.154810000000000336e+00 2.520039999999999836e+00 5.228430000000000355e+00 5.798199999999999577e+00 3.449629999999999974e+00 5.852800000000000225e-01 7.191340000000000288e+00 4.266759999999999664e+00 2.897889999999999855e+00 8.582359999999999545e+00 5.106930000000000192e+00 5.223049999999999748e+00 7.219199999999999839e+00 6.035790000000000433e+00 5.720199999999999729e-01 8.612489999999999313e+00 6.868369999999999642e+00 2.903700000000000170e+00 1.000017000000000067e+01 7.689729999999999954e+00 5.220110000000000028e+00 4.171800000000000175e+00 2.490320000000000089e+00 6.959869999999999557e+00 1.153064999999999962e+01 8.601979999999999293e+00 2.324339999999999851e+00 7.048919999999999852e+00 9.429650000000000531e+00 4.644739999999999647e+00 1.146241999999999983e+01 5.086660000000000181e+00 6.964240000000000208e+00 8.682249999999999801e+00 3.417440000000000033e+00 2.315609999999999946e+00 4.202740000000000364e+00 4.249380000000000379e+00 4.638639999999999652e+00 8.717380000000000351e+00 5.181339999999999613e+00 2.259999999999999856e-03 4.235109999999999708e+00 6.012769999999999726e+00 2.320089999999999986e+00 1.149837999999999916e+01 6.842489999999999739e+00 4.641300000000000203e+00 7.113319999999999865e+00 2.496030000000000193e+00 6.960770000000000124e+00 4.333680000000000199e+00 8.338600000000000456e-01 2.325110000000000010e+00 9.977149999999999963e+00 9.427160000000000650e+00 4.638569999999999638e+00 8.523500000000000298e+00 5.086269999999999847e+00 6.964620000000000033e+00 5.747580000000000133e+00 3.423620000000000108e+00 2.321860000000000035e+00 7.136230000000000295e+00 4.249509999999999899e+00 4.651220000000000354e+00 5.781600000000000072e+00 5.185419999999999696e+00 7.450000000000000025e-03 7.176339999999999719e+00 6.008610000000000007e+00 2.318519999999999914e+00 8.554299999999999571e+00 6.844660000000000188e+00 4.648130000000000095e+00
1.451370000000000049e+00 8.494000000000000439e-01 6.059900000000000286e-01 2.856949999999999878e+00 1.715999999999999970e+00 3.003470000000000084e+00 4.268349999999999866e+00 2.587000000000000188e+00 5.417080000000000339e+00 2.926130000000000120e+00 3.355119999999999880e+00 5.933899999999999730e-01 4.333739999999999704e+00 4.232479999999999798e+00 2.997829999999999995e+00 5.744030000000000413e+00 5.104129999999999612e+00 5.409340000000000259e+00 4.393810000000000215e+00 5.872289999999999566e+00 5.961600000000000232e-01 5.807570000000000121e+00 6.740479999999999805e+00 3.004799999999999915e+00 7.216079999999999828e+00 7.608939999999999593e+00 5.419019999999999726e+00 4.348349999999999937e+00 8.476200000000000401e-01 6.045700000000000518e-01 5.761079999999999757e+00 1.719240000000000101e+00 3.007060000000000066e+00 7.174129999999999896e+00 2.591450000000000031e+00 5.414030000000000342e+00 5.818760000000000154e+00 3.354000000000000092e+00 6.024699999999999500e-01 7.230699999999999683e+00 4.229309999999999903e+00 3.006699999999999928e+00 8.647230000000000416e+00 5.105559999999999654e+00 5.414640000000000342e+00 7.301219999999999821e+00 5.875899999999999679e+00 5.970600000000000351e-01 8.713359999999999772e+00 6.739930000000000199e+00 3.008519999999999861e+00 1.012402999999999942e+01 7.611139999999999795e+00 5.413540000000000241e+00 4.238959999999999617e+00 2.621090000000000142e+00 7.216429999999999900e+00 7.215600000000000236e+00 8.734699999999999687e-01 2.406260000000000066e+00 1.305345999999999940e+01 9.278869999999999507e+00 4.811840000000000117e+00 7.279090000000000060e+00 2.511470000000000091e+00 9.100000000000000016e-04 2.893409999999999815e+00 3.382460000000000022e+00 2.404840000000000089e+00 4.301249999999999574e+00 4.261140000000000150e+00 4.809420000000000250e+00 2.953959999999999919e+00 5.019770000000000287e+00 3.010000000000000089e-03 1.016564999999999941e+01 5.895719999999999850e+00 2.413689999999999891e+00 1.157718000000000025e+01 6.774549999999999628e+00 4.817009999999999792e+00 2.899929999999999897e+00 4.190000000000000148e-03 4.479999999999999608e-03 4.314099999999999824e+00 8.733899999999999997e-01 2.405749999999999833e+00 5.726479999999999571e+00 1.747400000000000064e+00 4.812490000000000379e+00 4.376619999999999955e+00 2.509869999999999823e+00 1.600000000000000077e-03 5.795869999999999855e+00 3.385320000000000107e+00 2.400710000000000122e+00 7.204259999999999664e+00 4.258499999999999730e+00 4.813200000000000145e+00 1.008911999999999942e+01 7.643110000000000070e+00 7.215440000000000076e+00 7.266269999999999563e+00 5.894899999999999807e+00 2.405710000000000015e+00 8.676529999999999632e+00 6.768209999999999837e+00 4.811589999999999812e+00
1.452790000000000026e+00 8.483399999999999830e-01 6.057399999999999451e-01 2.856720000000000148e+00 1.716290000000000093e+00 3.002110000000000056e+00 4.267859999999999765e+00 2.587619999999999809e+00 5.417559999999999931e+00 2.926219999999999821e+00 3.353709999999999969e+00 5.938099999999999490e-01 4.332160000000000011e+00 4.235280000000000378e+00 2.997780000000000111e+00 5.746450000000000280e+00 5.102330000000000254e+00 5.405560000000000365e+00 4.394919999999999938e+00 5.872370000000000090e+00 5.991100000000000314e-01 5.806849999999999845e+00 6.741929999999999978e+00 3.005160000000000053e+00 7.214780000000000193e+00 7.610240000000000116e+00 5.419489999999999696e+00 4.346750000000000114e+00 8.470199999999999951e-01 6.032300000000000439e-01 5.763670000000000293e+00 1.720080000000000053e+00 3.007229999999999848e+00 7.175189999999999735e+00 2.594889999999999919e+00 5.412289999999999601e+00 5.822230000000000238e+00 3.350880000000000081e+00 6.033899999999999819e-01 7.228360000000000340e+00 4.226460000000000328e+00 3.005269999999999886e+00 8.644610000000000127e+00 5.109950000000000436e+00 5.414830000000000254e+00 7.296199999999999797e+00 5.876859999999999751e+00 5.955899999999999528e-01 8.710860000000000269e+00 6.733789999999999942e+00 3.007480000000000153e+00 1.012322999999999951e+01 7.610450000000000159e+00 5.409279999999999866e+00 4.539999999999999765e-03 8.300000000000000086e-04 1.100000000000000039e-04 1.164297999999999966e+01 8.405369999999999564e+00 2.408980000000000121e+00 7.247819999999999929e+00 9.276949999999999363e+00 4.809569999999999901e+00 7.280109999999999637e+00 2.510819999999999830e+00 1.580000000000000024e-03 2.895449999999999857e+00 3.382190000000000030e+00 2.402779999999999916e+00 1.010547000000000040e+01 4.262850000000000250e+00 4.811320000000000263e+00 2.952620000000000022e+00 5.018440000000000012e+00 5.810000000000000060e-03 1.016580000000000084e+01 5.893830000000000346e+00 2.414759999999999796e+00 1.157717000000000063e+01 6.772730000000000139e+00 4.817379999999999995e+00 2.898089999999999833e+00 2.809999999999999998e-03 5.839999999999999705e-03 4.314910000000000245e+00 8.743699999999999806e-01 2.404520000000000213e+00 5.726589999999999847e+00 1.749759999999999982e+00 4.814729999999999954e+00 4.377469999999999750e+00 2.511829999999999785e+00 4.099999999999999912e-04 5.794539999999999580e+00 3.388049999999999784e+00 2.400349999999999984e+00 7.207169999999999632e+00 4.260200000000000209e+00 4.812710000000000043e+00 1.008918000000000070e+01 7.643510000000000026e+00 7.216709999999999958e+00 7.266339999999999577e+00 5.893019999999999925e+00 2.405079999999999885e+00 8.677440000000000708e+00 6.769720000000000404e+00 4.810310000000000308e+00
1.425189999999999957e+00 8.396500000000000075e-01 5.960199999999999942e-01 2.896020000000000039e+00 1.720509999999999984e+00 3.001100000000000101e+00 4.363999999999999879e+00 2.604029999999999845e+00 5.402370000000000339e+00 2.789219999999999811e+00 3.323170000000000179e+00 6.029099999999999460e-01 4.259750000000000369e+00 4.216429999999999900e+00 3.002899999999999903e+00 5.728080000000000283e+00 5.096899999999999764e+00 5.398089999999999833e+00 4.165429999999999744e+00 5.818019999999999747e+00 6.029900000000000260e-01 5.634559999999999569e+00 6.695009999999999906e+00 3.005650000000000155e+00 7.092299999999999827e+00 7.584010000000000140e+00 5.399849999999999817e+00 4.288809999999999789e+00 8.448499999999999899e-01 6.049799999999999622e-01 5.756400000000000183e+00 1.726029999999999953e+00 3.000490000000000101e+00 7.217660000000000409e+00 2.605560000000000098e+00 5.404930000000000234e+00 5.662589999999999790e+00 3.329779999999999962e+00 6.017299999999999871e-01 7.128110000000000390e+00 4.211359999999999992e+00 3.003190000000000026e+00 8.591789999999999594e+00 5.095010000000000261e+00 5.402630000000000265e+00 7.026740000000000208e+00 5.812750000000000306e+00 6.014300000000000201e-01 8.489290000000000447e+00 6.698970000000000091e+00 3.003699999999999815e+00 9.967930000000000845e+00 7.577079999999999593e+00 5.405569999999999986e+00 5.732339999999999769e+00 4.959999999999999999e-03 7.870000000000000259e-03 1.467039999999999900e+00 8.841700000000000115e-01 2.399760000000000115e+00 7.041459999999999830e+00 9.220800000000000551e+00 4.801160000000000316e+00 1.149732999999999983e+01 5.143080000000000318e+00 7.199250000000000149e+00 8.561629999999999185e+00 3.368240000000000123e+00 2.401569999999999983e+00 4.298370000000000246e+00 4.246769999999999712e+00 4.797939999999999650e+00 2.744540000000000202e+00 4.966569999999999929e+00 1.410000000000000012e-03 9.929909999999999570e+00 5.858150000000000190e+00 2.399270000000000014e+00 1.139734999999999943e+01 6.735999999999999766e+00 4.798250000000000348e+00 2.862680000000000113e+00 5.459999999999999576e-03 4.950000000000000407e-03 8.435050000000000381e+00 8.337249999999999162e+00 2.403420000000000112e+00 9.911390000000000811e+00 9.223979999999999180e+00 4.801370000000000360e+00 8.636710000000000775e+00 5.128949999999999676e+00 7.197210000000000107e+00 5.697269999999999612e+00 3.373740000000000183e+00 2.394800000000000040e+00 7.166039999999999743e+00 4.243409999999999904e+00 4.799750000000000405e+00 1.000094999999999956e+01 7.621660000000000323e+00 7.203439999999999621e+00 7.063550000000000217e+00 5.853939999999999699e+00 2.400419999999999998e+00 8.537259999999999849e+00 6.743809999999999860e+00 4.800919999999999632e+00