-2.884639645299999984e+02
-2.884585000000000150e+02
-2.856784099800000263e+02
-2.856830070699999737e+02
-2.838839159899999913e+02
-2.838815645199999835e+02
-2.874501571600000034e+02
-2.874672332700000084e+02
-2.878881248299999811e+02
-2.878737687899999855e+02
-2.853045586800000137e+02
-2.852890048099999944e+02
-2.904867832400000225e+02
-2.905001804899999911e+02
-2.862072255900000073e+02
-2.862023001300000260e+02
-2.852290952600000082e+02
-2.852125019900000211e+02
-2.862728860799999779e+02
-2.862520771700000068e+02
-2.914838929499999836e+02
-2.914774070500000107e+02
-2.915816321699999776e+02
-2.915869146300000239e+02
-2.838407586600000059e+02
-2.838348952399999803e+02
-2.849063209500000085e+02
-2.848964813299999719e+02
-2.882130523899999730e+02
-2.882060042900000099e+02
-2.814824924200000282e+02
-2.814797778099999732e+02
-2.889312541900000042e+02
-2.889213896100000056e+02
-2.871800340300000016e+02
-2.871914396000000238e+02
-2.846542469199999914e+02
-2.846380022000000167e+02
-2.880298819399999957e+02
-2.880247029799999723e+02
-2.880029317099999844e+02
-2.880001156600000058e+02
-2.849979398699999820e+02
-2.849890321699999731e+02
-2.888758649900000250e+02
-2.888805756200000019e+02
-2.834165540999999848e+02
-2.834082567599999720e+02
-2.867766123299999776e+02
-2.867798045999999772e+02
-2.847075580900000205e+02
-2.847064239200000202e+02
-2.905597696199999973e+02
-2.905602958900000203e+02
-2.869964168299999869e+02
-2.869896371599999725e+02
-2.867020692500000223e+02
-2.866965830999999980e+02
-2.830761228200000232e+02
-2.830751193300000068e+02
-2.939107216799999946e+02
-2.939065157499999827e+02
-2.937335274800000207e+02
-2.937384554000000207e+02
-2.922928956599999992e+02
-2.922883561500000269e+02
-2.895569295799999736e+02
-2.895535894500000040e+02
-2.896811679099999992e+02
-2.896785808100000281e+02
-2.921645308299999897e+02
-2.921565618600000107e+02
-2.945256346499999722e+02
-2.945210183899999947e+02
-2.923164986300000123e+02
-2.923141543699999829e+02
-2.936245744400000035e+02
-2.936192293700000278e+02
-2.940945923799999946e+02
-2.940906916900000283e+02
-2.940364150699999755e+02
-2.940312703199999760e+02
-2.937166426399999750e+02
-2.937095901899999717e+02
-2.912561108599999784e+02
-2.912680242299999804e+02
-2.924139706999999930e+02
-2.924063632500000267e+02
-2.935484254500000247e+02
-2.935573459199999888e+02
-2.930969410700000140e+02
-2.931008698900000127e+02
-2.931828679500000021e+02
-2.931806500100000221e+02
-2.944024562399999922e+02
-2.943982494800000040e+02
-2.936550591800000234e+02
-2.936499361200000067e+02
-2.944617299799999728e+02
-2.944538777099999720e+02
-2.942186000899999954e+02
-2.942196461099999851e+02
-2.930921131599999967e+02
-2.931129844600000069e+02
-2.932311548700000117e+02
-2.932252753800000278e+02
-2.939692292500000121e+02
-2.939620451600000024e+02
-2.915963085199999796e+02
-2.915927652400000056e+02
-2.930321853500000202e+02
-2.930305423199999950e+02
-2.941588955500000111e+02
-2.941587208299999929e+02
-2.937777564900000016e+02
-2.937830050700000015e+02
-2.944576609100000155e+02
-2.944582558199999767e+02
-2.934072256399999787e+02
-2.934051393500000131e+02
-2.948490105199999789e+02
-2.948454858100000138e+02
-2.946566420500000163e+02
-2.946504572200000212e+02
-2.936910462399999915e+02
-2.936884863399999972e+02
-2.940733693600000151e+02
-2.940669720899999788e+02
-2.944288589199999819e+02
-2.944237366799999904e+02
-2.941149381700000163e+02
-2.941096944299999905e+02
-2.946163672800000199e+02
-2.946120876800000019e+02
-2.947123107099999970e+02
-2.947086932999999931e+02
-2.940627027900000030e+02
-2.940676277100000107e+02
-2.940112296799999854e+02
-2.940088803200000029e+02
-2.946205706800000144e+02
-2.946117563399999995e+02
-2.946588360999999736e+02
-2.946555730300000278e+02
-2.942437158899999758e+02
-2.942321183700000233e+02
-2.943314749799999959e+02
-2.943250139300000114e+02
-2.941670881900000154e+02
-2.941635492799999838e+02
-2.941476613199999974e+02
-2.941395038800000066e+02
-2.942582029100000227e+02
-2.942508767200000079e+02
-2.943187838900000202e+02
-2.943163661699999807e+02
-2.940506391900000267e+02
-2.940494671000000153e+02
-2.941950225799999998e+02
-2.941921060500000067e+02
-2.940519974900000193e+02
-2.940500784299999850e+02
-2.932218693500000199e+02
-2.932220872899999904e+02
-2.934955218100000138e+02
-2.935008458699999778e+02
-2.943396349000000214e+02
-2.943350282000000107e+02
-2.942042275300000256e+02
-2.941966935300000046e+02
-2.945581033400000024e+02
-2.945612241499999868e+02
-2.941801398700000050e+02
-2.941829834100000198e+02
-2.945009003600000028e+02
-2.945024146800000153e+02
-2.942474644100000205e+02
-2.942423273699999982e+02
-2.943339113900000257e+02
-2.943228036699999848e+02
-2.940273545599999920e+02
-2.940238857100000018e+02
-2.939734804799999779e+02
-2.939686118399999941e+02
-2.936532808399999794e+02
-2.936597700300000042e+02
-2.945776378699999896e+02
-2.945752551200000084e+02
-2.943982688699999812e+02
-2.943890383400000132e+02
-2.929120228200000042e+02
-2.929065861700000255e+02
-2.936981507400000169e+02
-2.936922975599999859e+02
-2.926051509000000124e+02
-2.925985934999999927e+02
-2.938894513500000016e+02
-2.938876833699999906e+02
-2.926065850499999783e+02
-2.926097464100000138e+02
-2.941806068999999866e+02
-2.941753974299999754e+02
-2.938685457999999926e+02
-2.938734300200000007e+02
-2.919079814500000225e+02
-2.919057495600000038e+02
-2.923000197900000217e+02
-2.922960511800000063e+02
-2.916368813000000273e+02
-2.916346088099999747e+02
-2.910019786500000123e+02
-2.909961908000000221e+02
-2.934435654000000113e+02
-2.934421707800000263e+02
-2.928643112199999905e+02
-2.928591751199999749e+02
-2.932386822999999936e+02
-2.932396500599999740e+02
-2.927606667399999765e+02
-2.927546843599999988e+02
-2.945559088300000212e+02
-2.945500256099999774e+02
-2.940813188600000103e+02
-2.940771841800000175e+02
-2.940900303799999733e+02
-2.940859720799999764e+02
-2.932055634600000076e+02
-2.932021772800000008e+02
-2.935685569999999984e+02
-2.935632105099999762e+02
-2.927343140099999914e+02
-2.927361867999999845e+02
-2.947171192000000133e+02
-2.947138967800000273e+02
-2.928419939600000248e+02
-2.928427601299999878e+02
-2.934799277800000255e+02
-2.934814405199999783e+02
-2.941537329500000055e+02
-2.941522873499999946e+02
-2.901124096699999768e+02
-2.901096804300000258e+02
-2.889264567899999747e+02
-2.889241661500000191e+02
-2.922466471399999932e+02
-2.922427415899999801e+02
-2.877406830400000217e+02
-2.877372063799999751e+02
-2.883651939100000163e+02
-2.883644900300000131e+02
-2.884906432500000051e+02
-2.884875296199999752e+02
-2.888691999499999952e+02
-2.888673504000000207e+02
-2.885799388099999874e+02
-2.885782489700000042e+02
-2.880779931199999737e+02
-2.880760868500000242e+02
-2.898276596800000107e+02
-2.898248542700000030e+02
-2.932271578799999929e+02
-2.932223468400000002e+02
-2.887422139099999754e+02
-2.887376524700000004e+02
-2.918750976200000196e+02
-2.918712828000000172e+02
-2.929176590299999816e+02
-2.929172130200000197e+02
-2.894575607200000036e+02
-2.894557494100000099e+02
-2.904985479700000042e+02
-2.904989096200000063e+02
-2.893291793999999868e+02
-2.893268060799999830e+02
-2.880552402399999892e+02
-2.880562455300000124e+02
-2.885259195500000260e+02
-2.885223970600000030e+02
-2.889348520099999860e+02
-2.889321176299999934e+02
-2.860624716799999874e+02
-2.860608210799999824e+02
-2.850987051199999769e+02
-2.850969099899999719e+02
-2.860825973500000146e+02
-2.860803171000000020e+02
-2.903663268199999834e+02
-2.903644066499999781e+02
-2.892330860499999972e+02
-2.892320573399999830e+02
-2.887140895599999908e+02
-2.887119677300000262e+02
-2.874731755600000156e+02
-2.874708519399999886e+02
-2.882651593499999763e+02
-2.882631900100000166e+02
-2.855425205000000233e+02
-2.855408079000000043e+02
-2.915372461700000031e+02
-2.915329499499999883e+02
