5.399999999999999798e-05 6.399999999999999710e-05 4.699999999999999724e-05 -3.199999999999999855e-05 9.000000000000000228e-06 -7.899999999999999579e-05 7.100000000000000462e-05 7.799999999999999859e-05 3.800000000000000209e-05 -3.300000000000000253e-05 -7.299999999999999903e-05 3.600000000000000091e-05 -1.190000000000000058e-04 -1.320000000000000101e-04 -9.200000000000000007e-05 -3.800000000000000209e-05 -8.799999999999999771e-05 2.300000000000000002e-05 7.100000000000000462e-05 6.099999999999999872e-05 6.299999999999999990e-05 -3.800000000000000209e-05 -9.000000000000000228e-06 -9.000000000000000567e-05 6.499999999999999431e-05 5.399999999999999798e-05 3.899999999999999929e-05 5.500000000000000196e-05 6.600000000000000506e-05 4.800000000000000122e-05 -3.300000000000000253e-05 9.000000000000000228e-06 -7.899999999999999579e-05 7.100000000000000462e-05 7.799999999999999859e-05 3.800000000000000209e-05 -3.199999999999999855e-05 -7.399999999999999623e-05 3.699999999999999811e-05 -1.210000000000000002e-04 -1.320000000000000101e-04 -9.299999999999999727e-05 -3.899999999999999929e-05 -8.799999999999999771e-05 2.300000000000000002e-05 7.200000000000000182e-05 6.099999999999999872e-05 6.299999999999999990e-05 -3.899999999999999929e-05 -7.999999999999999638e-06 -9.000000000000000567e-05 6.600000000000000506e-05 5.300000000000000078e-05 3.800000000000000209e-05 -6.600000000000000506e-05 -5.899999999999999754e-05 -4.399999999999999886e-05 3.300000000000000253e-05 0.000000000000000000e+00 8.700000000000000051e-05 -6.700000000000000226e-05 -6.099999999999999872e-05 -5.800000000000000034e-05 3.600000000000000091e-05 8.299999999999999815e-05 -3.100000000000000135e-05 1.320000000000000101e-04 1.399999999999999877e-04 9.600000000000000243e-05 3.199999999999999855e-05 8.100000000000000375e-05 -4.699999999999999724e-05 -6.700000000000000226e-05 -7.700000000000000139e-05 -3.899999999999999929e-05 3.100000000000000135e-05 -1.699999999999999987e-05 9.200000000000000007e-05 -6.600000000000000506e-05 -7.600000000000000418e-05 -5.399999999999999798e-05 -6.700000000000000226e-05 -6.000000000000000152e-05 -4.300000000000000165e-05 3.600000000000000091e-05 -9.999999999999999547e-07 8.899999999999999491e-05 -6.700000000000000226e-05 -6.099999999999999872e-05 -6.000000000000000152e-05 3.300000000000000253e-05 8.399999999999999535e-05 -2.900000000000000017e-05 1.330000000000000073e-04 1.379999999999999933e-04 9.799999999999999684e-05 3.100000000000000135e-05 8.000000000000000654e-05 -4.800000000000000122e-05 -6.600000000000000506e-05 -7.499999999999999343e-05 -3.899999999999999929e-05 3.199999999999999855e-05 -1.699999999999999987e-05 9.100000000000000287e-05 -6.700000000000000226e-05 -7.499999999999999343e-05 -5.500000000000000196e-05
1.279119999999999979e-01 8.306600000000000095e-02 2.015199999999999977e-02 6.619899999999999396e-02 8.848300000000000609e-02 1.026809999999999945e-01 1.012780000000000069e-01 -1.661199999999999830e-02 -7.402499999999999358e-02 -6.383900000000000685e-02 2.226099999999999954e-02 1.587570000000000092e-01 -1.696999999999999941e-03 5.565300000000000108e-02 -1.208749999999999963e-01 1.229849999999999971e-01 1.036379999999999940e-01 -7.479000000000000405e-03 5.937599999999999822e-02 -2.878000000000000003e-02 5.587099999999999705e-02 -8.463000000000000037e-03 7.334200000000000441e-02 4.795699999999999963e-02 -2.359800000000000092e-02 2.274400000000000033e-02 -5.372899999999999898e-02 1.023600000000000031e-02 -6.443599999999999328e-02 3.036200000000000010e-02 2.680999999999999790e-03 9.738199999999999634e-02 5.540400000000000186e-02 9.348000000000000406e-03 -9.078899999999999471e-02 1.323099999999999971e-02 -8.105400000000000105e-02 5.180300000000000182e-02 -5.723500000000000115e-02 7.428800000000000681e-02 -8.057999999999999191e-03 -8.662300000000000555e-02 -4.224000000000000324e-03 8.545099999999999918e-02 3.578800000000000037e-02 2.662799999999999889e-02 -5.091400000000000092e-02 1.674199999999999994e-02 2.188999999999999974e-02 1.881999999999999992e-03 -1.591199999999999906e-02 -3.044300000000000131e-02 -1.601259999999999906e-01 -2.219700000000000145e-02 -1.067110000000000003e-01 -3.242000000000000090e-03 -3.528699999999999892e-02 -9.262199999999999600e-02 -8.015100000000000002e-02 -5.315000000000000280e-02 -2.403200000000000128e-02 -6.065999999999999864e-02 -2.294699999999999865e-02 6.023200000000000082e-02 -1.113549999999999957e-01 1.912600000000000064e-02 -7.987299999999999955e-02 -2.341800000000000131e-02 -7.787199999999999678e-02 -9.275999999999999523e-02 -8.270700000000000274e-02 6.096800000000000136e-02 2.454900000000000138e-02 -1.959899999999999837e-02 -3.432400000000000034e-02 6.319999999999999663e-04 -6.288199999999999346e-02 -3.559299999999999964e-02 1.728899999999999881e-02 -2.405300000000000146e-02 -2.394999999999999993e-03 -7.549000000000000155e-03 1.453760000000000052e-01 3.966000000000000081e-02 1.878900000000000015e-02 -1.483199999999999970e-02 -7.480699999999999850e-02 -9.158900000000000374e-02 1.492320000000000035e-01 -8.257399999999999463e-02 8.020099999999999452e-02 2.170400000000000107e-02 -8.428299999999999681e-02 2.898299999999999835e-02 -1.014339999999999964e-01 6.671599999999999753e-02 -4.538699999999999679e-02 6.151700000000000224e-02 6.261400000000000299e-02 -1.097759999999999986e-01 -3.375500000000000028e-02 5.423499999999999849e-02 -2.507500000000000007e-02 -3.502399999999999958e-02 -2.689799999999999830e-02 3.527399999999999980e-02 9.383000000000000715e-03 1.279919999999999947e-01
5.218199999999999922e-02 5.235849999999999671e-01 1.014413000000000009e+00 2.857790000000000052e-01 6.442670000000000341e-01 1.198213999999999890e+00 5.130699999999999844e-02 7.382830000000000226e-01 1.062084000000000028e+00 9.571000000000000341e-02 5.413360000000000394e-01 1.128020000000000023e+00 2.712260000000000226e-01 4.279510000000000258e-01 1.158741999999999939e+00 1.170569999999999944e-01 6.222250000000000281e-01 1.018275000000000041e+00 -3.966800000000000187e-02 5.091229999999999922e-01 9.064649999999999652e-01 3.461350000000000260e-01 5.471249999999999725e-01 1.036720000000000086e+00 -3.002399999999999861e-02 6.593339999999999756e-01 9.345900000000000318e-01 1.754519999999999968e-01 8.393040000000000500e-01 1.114179000000000030e+00 3.338479999999999781e-01 6.419120000000000381e-01 1.048529999999999962e+00 1.325909999999999866e-01 6.115469999999999517e-01 7.628500000000000281e-01 2.159799999999999914e-02 6.555549999999999988e-01 1.121118999999999977e+00 1.288500000000000062e-02 5.952330000000000121e-01 1.032159000000000049e+00 3.139040000000000163e-01 6.972140000000000004e-01 9.834889999999999466e-01 -1.806139999999999968e-01 6.155399999999999761e-01 9.618219999999999548e-01 9.944300000000000361e-02 5.999980000000000313e-01 9.261359999999999593e-01 1.448149999999999993e-01 6.027360000000000495e-01 1.270631000000000066e+00 -1.124299999999999952e-02 -5.918400000000000327e-01 -9.324980000000000491e-01 -4.046529999999999849e-01 -5.742990000000000039e-01 -1.080913999999999930e+00 -3.345429999999999793e-01 -8.118440000000000101e-01 -9.928970000000000296e-01 1.029399999999999933e-02 -6.289320000000000466e-01 -1.100956000000000046e+00 -2.345079999999999942e-01 -5.734829999999999650e-01 -1.156217999999999968e+00 -2.292160000000000031e-01 -5.660899999999999821e-01 -1.054227999999999943e+00 1.528940000000000021e-01 -4.682529999999999748e-01 -1.025201000000000029e+00 -2.311699999999999866e-01 -4.842080000000000273e-01 -1.127110000000000056e+00 1.063950000000000035e-01 -5.241890000000000160e-01 -9.535759999999999792e-01 -2.009620000000000017e-01 -7.039549999999999974e-01 -8.974609999999999532e-01 -1.706380000000000119e-01 -7.052150000000000363e-01 -1.073757999999999990e+00 1.303910000000000069e-01 -7.105810000000000182e-01 -1.205475999999999992e+00 -1.632919999999999927e-01 -8.323890000000000455e-01 -1.078113000000000099e+00 -1.009999999999999960e-02 -5.542770000000000197e-01 -9.096450000000000369e-01 -2.232449999999999990e-01 -6.423710000000000253e-01 -1.058497000000000021e+00 6.550899999999999779e-02 -4.156830000000000247e-01 -1.063806999999999947e+00 -2.500209999999999932e-01 -5.845609999999999973e-01 -9.337400000000000144e-01 -2.062630000000000019e-01 -6.956480000000000441e-01 -1.039312000000000014e+00
5.735400000000000220e-02 4.572069999999999745e-01 9.761319999999999997e-01 2.501869999999999927e-01 7.002129999999999743e-01 1.153896000000000033e+00 1.391820000000000002e-01 7.304929999999999479e-01 1.204487000000000085e+00 2.066799999999999887e-02 4.502950000000000008e-01 1.081622000000000083e+00 2.363740000000000008e-01 4.237230000000000163e-01 1.162849000000000022e+00 8.440599999999999492e-02 6.706309999999999771e-01 9.749349999999999961e-01 3.168900000000000189e-02 5.570770000000000444e-01 8.844760000000000399e-01 3.666409999999999947e-01 6.124560000000000004e-01 9.657179999999999653e-01 6.663299999999999779e-02 4.840409999999999990e-01 9.996810000000000418e-01 1.796669999999999934e-01 7.643290000000000362e-01 1.099582000000000059e+00 4.970550000000000246e-01 7.056689999999999907e-01 1.113885999999999932e+00 2.889379999999999726e-01 5.370960000000000178e-01 6.930150000000000476e-01 -1.021589999999999998e-01 6.280259999999999732e-01 1.104039999999999910e+00 3.426400000000000279e-02 5.056420000000000359e-01 1.083472999999999908e+00 3.653350000000000208e-01 7.590759999999999730e-01 1.017074999999999951e+00 -1.910250000000000004e-01 5.135819999999999830e-01 8.981350000000000167e-01 6.965499999999999470e-02 6.347840000000000149e-01 9.239859999999999740e-01 1.803530000000000133e-01 4.797770000000000090e-01 1.294535999999999909e+00 1.028000000000000051e-03 -5.889539999999999775e-01 -9.850839999999999597e-01 -3.804359999999999964e-01 -5.740979999999999972e-01 -1.043595999999999968e+00 -4.826230000000000242e-01 -6.859819999999999807e-01 -1.018923999999999941e+00 1.434880000000000044e-01 -6.631599999999999717e-01 -1.050105000000000066e+00 -2.278959999999999875e-01 -5.931049999999999933e-01 -1.086770000000000014e+00 -3.125930000000000097e-01 -5.113349999999999840e-01 -1.065029000000000003e+00 7.665099999999999691e-02 -3.690729999999999844e-01 -1.044162999999999952e+00 -2.242949999999999944e-01 -5.559779999999999722e-01 -1.135464000000000029e+00 5.910999999999999588e-03 -4.581760000000000277e-01 -8.850980000000000514e-01 -2.269160000000000066e-01 -5.971680000000000321e-01 -8.143190000000000150e-01 -3.234850000000000225e-01 -7.411069999999999602e-01 -1.124946000000000002e+00 6.010100000000000164e-02 -7.509540000000000104e-01 -1.264000000000000012e+00 -1.228879999999999972e-01 -7.677760000000000140e-01 -1.117901999999999951e+00 1.826600000000000099e-02 -5.279220000000000024e-01 -8.960860000000000491e-01 -1.887639999999999874e-01 -6.071039999999999770e-01 -1.131828999999999974e+00 1.059019999999999961e-01 -3.244440000000000102e-01 -1.088616000000000028e+00 -2.443490000000000106e-01 -6.063410000000000188e-01 -9.247950000000000337e-01 -2.529040000000000177e-01 -6.859290000000000109e-01 -9.576670000000000460e-01
2.147479999999999944e-01 -5.395599999999999702e-02 -4.147190000000000043e-01 2.764050000000000118e-01 4.134499999999999981e-02 -3.642739999999999867e-01 6.260980000000000434e-01 1.127139999999999947e-01 -7.936549999999999994e-01 4.178999999999999937e-01 5.525800000000000156e-02 -5.674900000000000500e-01 2.038600000000000134e-01 -2.154540000000000066e-01 -2.322730000000000072e-01 2.451550000000000118e-01 -2.888699999999999948e-02 -4.857170000000000099e-01 3.704219999999999735e-01 6.910900000000000376e-02 -3.713190000000000102e-01 3.142610000000000126e-01 -5.289800000000000058e-02 -3.629220000000000224e-01 3.126579999999999915e-01 -5.168999999999999984e-02 -4.122439999999999993e-01 2.250610000000000110e-01 6.051100000000000229e-02 -2.971820000000000017e-01 5.639799999999999675e-02 1.788200000000000067e-01 -4.771690000000000098e-01 2.320309999999999873e-01 1.516639999999999933e-01 -7.053500000000000325e-01 1.181650000000000061e-01 -9.588099999999999401e-02 -1.867350000000000121e-01 4.569900000000000073e-01 -8.393000000000000460e-02 -2.056800000000000017e-01 2.751449999999999729e-01 1.335199999999999929e-02 -4.652789999999999981e-01 3.758940000000000059e-01 -7.611300000000000010e-02 -6.979509999999999881e-01 3.715459999999999874e-01 3.862100000000000255e-02 -2.248549999999999993e-01 1.000120000000000037e-01 9.318300000000000194e-02 -3.172800000000000065e-01 -1.282870000000000121e-01 2.096900000000000153e-02 6.894329999999999625e-01 -1.884000000000000119e-01 -5.016199999999999826e-02 2.942270000000000163e-01 -4.048059999999999992e-01 -9.322400000000000131e-02 3.707909999999999817e-01 -3.321859999999999813e-01 -4.270199999999999690e-02 4.276059999999999861e-01 -3.913960000000000217e-01 -2.710100000000000009e-02 4.764320000000000221e-01 -1.497960000000000125e-01 -1.582760000000000000e-01 5.668149999999999578e-01 -4.553429999999999978e-01 -5.162300000000000222e-02 3.945089999999999986e-01 -3.086800000000000099e-01 2.880249999999999755e-01 2.565049999999999830e-01 -1.677730000000000055e-01 -6.206799999999999817e-02 3.315429999999999766e-01 -3.002839999999999954e-01 -4.222000000000000058e-03 5.963950000000000085e-01 -1.761040000000000105e-01 1.082600000000000055e-02 2.279779999999999862e-01 -4.510790000000000077e-01 7.969900000000000595e-02 7.018309999999999826e-01 -2.193539999999999934e-01 3.853999999999999787e-02 5.434240000000000181e-01 -2.573340000000000072e-01 -2.515519999999999978e-01 5.420200000000000018e-02 -3.552109999999999990e-01 -1.469580000000000053e-01 4.020199999999999885e-01 -2.950749999999999762e-01 5.263099999999999723e-02 2.960260000000000113e-01 -3.542919999999999958e-01 1.397670000000000023e-01 5.770450000000000301e-01 -2.505749999999999922e-01 9.751799999999999358e-02 3.737980000000000191e-01
2.306850000000000012e-01 -4.270399999999999890e-02 -5.506870000000000376e-01 2.629059999999999730e-01 1.644199999999999828e-02 -2.702559999999999962e-01 5.344590000000000174e-01 9.684800000000000353e-02 -8.910810000000000120e-01 4.599030000000000062e-01 -3.753800000000000192e-02 -5.982220000000000315e-01 1.763869999999999882e-01 -2.685179999999999789e-01 -8.355600000000000527e-02 2.728430000000000022e-01 -6.335999999999999618e-03 -5.528629999999999933e-01 3.285799999999999832e-01 7.410799999999999332e-02 -2.766950000000000243e-01 4.672339999999999827e-01 4.246500000000000274e-02 -3.719540000000000068e-01 2.929399999999999782e-01 -1.901549999999999907e-01 -5.873589999999999645e-01 2.759869999999999823e-01 3.910099999999999687e-02 -2.238429999999999864e-01 -7.774499999999999467e-02 1.603980000000000128e-01 -4.122480000000000033e-01 2.715489999999999848e-01 1.643540000000000001e-01 -5.832549999999999679e-01 1.226499999999999951e-01 -2.162299999999999986e-02 -2.641729999999999912e-01 3.670470000000000121e-01 1.244499999999999947e-02 -1.134209999999999940e-01 1.905660000000000132e-01 -4.401599999999999957e-02 -4.301079999999999903e-01 4.850280000000000147e-01 5.968799999999999800e-02 -7.092129999999999823e-01 3.378410000000000024e-01 6.574299999999999589e-02 -1.322550000000000114e-01 2.192089999999999872e-01 2.155960000000000099e-01 -2.275179999999999980e-01 -7.757899999999999519e-02 1.798800000000000052e-02 7.192800000000000304e-01 -1.595660000000000134e-01 -1.676950000000000107e-01 3.815200000000000258e-01 -4.059320000000000150e-01 4.852599999999999969e-02 3.519079999999999986e-01 -3.834330000000000238e-01 -7.756399999999999406e-02 4.366990000000000038e-01 -2.612200000000000077e-01 -2.129100000000000090e-02 4.902050000000000018e-01 -7.216000000000000192e-02 -1.528829999999999911e-01 4.494859999999999967e-01 -4.473239999999999994e-01 3.012199999999999947e-02 5.082299999999999596e-01 -3.772619999999999862e-01 2.636649999999999827e-01 1.766459999999999975e-01 -1.554889999999999883e-01 -8.248700000000000476e-02 3.599350000000000049e-01 -4.134430000000000049e-01 -1.047649999999999970e-01 4.530259999999999843e-01 -7.830299999999999760e-02 -6.259999999999999939e-03 2.281120000000000092e-01 -3.925830000000000153e-01 6.253300000000000525e-02 6.886959999999999749e-01 -2.165819999999999967e-01 1.459670000000000134e-01 4.664690000000000225e-01 -2.670950000000000268e-01 -2.404370000000000118e-01 7.889999999999999791e-02 -3.683699999999999752e-01 -1.684150000000000091e-01 4.219709999999999850e-01 -3.697320000000000051e-01 -1.073270000000000057e-01 2.333969999999999934e-01 -3.929279999999999995e-01 1.558789999999999898e-01 5.922749999999999959e-01 -3.719770000000000021e-01 6.405700000000000283e-02 2.401320000000000121e-01
7.079079999999999817e-01 3.542770000000000086e-01 -1.021484000000000059e+00 4.956530000000000102e-01 3.986370000000000191e-01 -9.256119999999999903e-01 6.868870000000000253e-01 4.941079999999999917e-01 -1.153572999999999960e+00 5.506039999999999823e-01 4.424719999999999764e-01 -1.211689000000000016e+00 6.741289999999999782e-01 3.590149999999999730e-01 -9.040270000000000250e-01 5.474989999999999579e-01 4.884020000000000028e-01 -1.073509999999999964e+00 4.265599999999999947e-01 4.254049999999999776e-01 -1.218018000000000045e+00 7.168940000000000312e-01 2.144709999999999950e-01 -1.007333000000000034e+00 4.024059999999999859e-01 5.246060000000000167e-01 -7.906959999999999544e-01 6.310299999999999798e-01 5.426330000000000320e-01 -9.170880000000000143e-01 5.361299999999999955e-01 5.703179999999999916e-01 -1.189435000000000020e+00 4.654820000000000069e-01 2.014279999999999959e-01 -1.164406000000000052e+00 4.829300000000000259e-01 4.345499999999999918e-01 -9.375080000000000080e-01 4.832469999999999821e-01 5.068510000000000515e-01 -8.621739999999999959e-01 4.527610000000000245e-01 4.226909999999999834e-01 -1.053871999999999920e+00 7.335709999999999731e-01 6.193670000000000009e-01 -8.424679999999999946e-01 5.389150000000000329e-01 4.188819999999999766e-01 -1.044019999999999948e+00 4.885740000000000083e-01 6.070809999999999818e-01 -7.399529999999999719e-01 -6.234730000000000549e-01 -4.319999999999999951e-01 1.234922000000000075e+00 -4.934149999999999925e-01 -3.955299999999999927e-01 9.334799999999999764e-01 -7.355110000000000259e-01 -3.722019999999999773e-01 8.862130000000000285e-01 -5.596050000000000191e-01 -4.550370000000000248e-01 1.023236999999999952e+00 -4.809820000000000206e-01 -4.195929999999999938e-01 1.212239000000000066e+00 -6.825280000000000236e-01 -4.408850000000000269e-01 1.032399000000000067e+00 -4.763789999999999969e-01 -3.753389999999999782e-01 9.421969999999999512e-01 -6.212440000000000184e-01 -3.109870000000000134e-01 1.107166000000000095e+00 -5.101499999999999924e-01 -5.246800000000000352e-01 9.776839999999999975e-01 -7.386019999999999808e-01 -4.942909999999999804e-01 1.137478999999999907e+00 -5.910819999999999963e-01 -5.358249999999999957e-01 8.560769999999999769e-01 -3.837820000000000120e-01 -4.028959999999999764e-01 1.326716999999999924e+00 -4.235780000000000101e-01 -5.423120000000000163e-01 1.092400000000000038e+00 -6.223389999999999755e-01 -5.384630000000000249e-01 8.730090000000000350e-01 -3.627779999999999894e-01 -3.342999999999999861e-01 8.694730000000000514e-01 -6.974540000000000184e-01 -5.695189999999999975e-01 6.739519999999999955e-01 -6.729619999999999491e-01 -2.614920000000000022e-01 1.043725000000000014e+00 -3.459590000000000165e-01 -6.205950000000000077e-01 8.374599999999999822e-01
7.156200000000000339e-01 3.548709999999999920e-01 -9.393780000000000463e-01 4.975809999999999955e-01 3.700640000000000041e-01 -9.856810000000000294e-01 6.685489999999999489e-01 4.917889999999999762e-01 -1.228283000000000014e+00 5.017909999999999870e-01 4.063680000000000070e-01 -1.114535999999999971e+00 7.087379999999999791e-01 4.253140000000000254e-01 -9.202749999999999542e-01 4.368509999999999893e-01 5.079000000000000181e-01 -1.144344999999999946e+00 4.208080000000000154e-01 4.352739999999999942e-01 -1.192253000000000007e+00 6.253309999999999702e-01 1.493760000000000088e-01 -8.620879999999999654e-01 3.504809999999999870e-01 3.916749999999999954e-01 -7.220199999999999951e-01 6.649159999999999515e-01 5.598880000000000523e-01 -9.581279999999999797e-01 6.854289999999999550e-01 6.337770000000000348e-01 -1.094537000000000093e+00 5.071620000000000017e-01 1.481129999999999947e-01 -1.302791000000000032e+00 3.735080000000000067e-01 3.837749999999999773e-01 -1.146555999999999909e+00 4.252420000000000089e-01 6.489190000000000236e-01 -6.844400000000000484e-01 4.424230000000000107e-01 3.852240000000000109e-01 -9.708560000000000523e-01 6.516159999999999730e-01 5.954460000000000308e-01 -7.873529999999999696e-01 4.985450000000000159e-01 3.960580000000000211e-01 -9.874420000000000419e-01 5.322660000000000169e-01 5.480749999999999789e-01 -6.914869999999999628e-01 -5.900940000000000074e-01 -4.109160000000000035e-01 1.284369000000000094e+00 -4.843629999999999880e-01 -2.811040000000000205e-01 8.163580000000000281e-01 -7.814999999999999725e-01 -2.860840000000000050e-01 9.312460000000000182e-01 -5.171379999999999866e-01 -5.071729999999999849e-01 1.076267000000000085e+00 -4.671790000000000109e-01 -4.586790000000000034e-01 1.134891000000000094e+00 -5.748360000000000136e-01 -4.186159999999999881e-01 1.048083000000000098e+00 -4.418810000000000238e-01 -3.294630000000000059e-01 8.112700000000000466e-01 -5.903500000000000414e-01 -3.727039999999999798e-01 1.141429000000000027e+00 -4.962280000000000024e-01 -4.628579999999999917e-01 9.313839999999999897e-01 -8.020279999999999632e-01 -5.092069999999999652e-01 1.263308000000000098e+00 -7.454760000000000275e-01 -5.925489999999999924e-01 8.294169999999999598e-01 -3.489320000000000199e-01 -3.228900000000000103e-01 1.297403000000000084e+00 -3.265669999999999962e-01 -5.218669999999999698e-01 1.032588000000000061e+00 -6.097730000000000095e-01 -5.454839999999999689e-01 1.096192999999999973e+00 -3.628779999999999784e-01 -3.761920000000000264e-01 6.549150000000000249e-01 -6.299270000000000147e-01 -5.113750000000000240e-01 6.085500000000000353e-01 -5.832559999999999967e-01 -3.612199999999999855e-01 9.802980000000000027e-01 -3.544260000000000188e-01 -5.637299999999999534e-01 7.963019999999999543e-01
-7.577599999999999614e-02 -1.952889999999999904e-01 2.668050000000000144e-01 1.375669999999999948e-01 -1.040869999999999990e-01 4.950229999999999908e-01 1.449330000000000063e-01 5.575100000000000194e-02 1.623080000000000078e-01 -9.513599999999999834e-02 -1.702319999999999944e-01 5.988440000000000429e-01 1.728999999999999981e-01 -3.381370000000000209e-01 5.864930000000000421e-01 1.520070000000000032e-01 -1.790760000000000129e-01 4.438030000000000030e-01 2.547110000000000207e-01 -2.896310000000000273e-01 6.061050000000000049e-01 1.714690000000000103e-01 -1.596130000000000049e-01 5.027049999999999574e-01 2.694420000000000148e-01 -9.339999999999999344e-03 2.010160000000000002e-01 1.772930000000000061e-01 -2.493090000000000028e-01 2.807259999999999756e-01 5.364000000000000018e-02 -1.367099999999999982e-01 3.856939999999999813e-01 2.431200000000000028e-02 -1.143649999999999944e-01 3.773349999999999760e-01 2.727169999999999872e-01 -4.640699999999999686e-02 2.385760000000000103e-01 4.061379999999999990e-01 -1.829689999999999928e-01 3.476890000000000258e-01 1.717619999999999980e-01 -2.739380000000000148e-01 3.048460000000000059e-01 6.508200000000000096e-02 -4.516649999999999832e-01 4.896800000000000042e-01 -2.080399999999999958e-02 -1.334079999999999988e-01 3.811959999999999793e-01 -2.631800000000000112e-02 -4.912600000000000300e-02 3.369260000000000033e-01 -1.927000000000000102e-01 2.835820000000000007e-01 -2.424790000000000001e-01 -1.223289999999999933e-01 1.460470000000000101e-01 -3.223400000000000154e-01 -7.307400000000000007e-02 4.803299999999999931e-02 -3.464169999999999749e-01 -9.835699999999999998e-02 2.354439999999999866e-01 -4.318239999999999856e-01 -3.078520000000000145e-01 2.068909999999999916e-01 -4.360310000000000019e-01 -1.836949999999999972e-01 -1.910600000000000145e-02 -3.811109999999999776e-01 -1.862630000000000119e-01 3.118469999999999853e-01 -3.740559999999999996e-01 -1.966199999999999892e-02 2.582079999999999931e-01 -7.130769999999999609e-01 -4.609499999999999709e-02 -1.433199999999999925e-02 -5.699950000000000294e-01 6.551700000000000579e-02 2.214029999999999887e-01 -4.906349999999999878e-01 -4.367900000000000255e-02 1.608400000000000107e-01 -3.306689999999999907e-01 -9.001000000000000667e-02 1.520019999999999982e-01 -3.644330000000000069e-01 -3.666400000000000214e-02 1.296269999999999922e-01 -4.373909999999999743e-01 -2.981940000000000146e-01 1.006910000000000027e-01 -2.467249999999999999e-01 -1.733210000000000028e-01 1.603360000000000063e-01 -3.872479999999999811e-01 -1.520029999999999992e-01 1.772320000000000007e-01 -2.325069999999999915e-01 -1.347480000000000067e-01 2.179310000000000136e-01 -3.983639999999999959e-01 -1.644859999999999933e-01 2.445370000000000044e-01 -3.042009999999999992e-01
-1.424819999999999975e-01 -1.689630000000000021e-01 3.143569999999999975e-01 1.987869999999999915e-01 -1.072270000000000029e-01 5.020729999999999915e-01 1.028560000000000030e-01 5.084199999999999831e-02 1.511760000000000048e-01 -6.951200000000000434e-02 -1.381620000000000070e-01 5.748879999999999546e-01 1.906720000000000081e-01 -4.513150000000000217e-01 6.327850000000000419e-01 1.052809999999999996e-01 -1.443709999999999993e-01 5.680500000000000549e-01 1.899039999999999895e-01 -3.359230000000000271e-01 5.437720000000000331e-01 1.983419999999999905e-01 -2.446629999999999916e-01 5.016230000000000411e-01 2.945699999999999985e-01 -6.210700000000000248e-02 2.387249999999999928e-01 2.112150000000000138e-01 -2.115470000000000128e-01 2.827500000000000013e-01 -3.983600000000000335e-02 -1.220070000000000043e-01 3.966410000000000213e-01 3.019499999999999962e-02 -1.870100000000000096e-01 4.417490000000000028e-01 1.929160000000000041e-01 5.298699999999999938e-02 1.905660000000000132e-01 5.121160000000000156e-01 -1.212830000000000019e-01 3.555440000000000267e-01 2.812749999999999972e-01 -3.289860000000000007e-01 3.080089999999999772e-01 2.002230000000000121e-01 -5.163499999999999757e-01 5.296689999999999454e-01 3.811799999999999911e-02 6.497899999999999510e-02 3.601280000000000037e-01 1.020800000000000006e-02 -3.275999999999999832e-03 4.749160000000000048e-01 -1.983099999999999863e-01 3.070260000000000211e-01 -2.386570000000000080e-01 -1.391840000000000022e-01 1.730679999999999996e-01 -4.169950000000000045e-01 -5.296900000000000219e-02 1.336529999999999940e-01 -2.989930000000000088e-01 -7.642400000000000582e-02 1.741870000000000085e-01 -5.094180000000000375e-01 -3.861129999999999840e-01 2.114870000000000083e-01 -3.650019999999999931e-01 -2.217659999999999909e-01 -3.952699999999999964e-02 -4.068700000000000094e-01 -1.727219999999999867e-01 3.877229999999999843e-01 -4.227270000000000194e-01 -5.109999999999999959e-03 3.745910000000000073e-01 -7.117040000000000033e-01 -3.174400000000000138e-02 2.665999999999999967e-02 -5.894519999999999760e-01 1.186790000000000067e-01 2.789300000000000113e-01 -5.896829999999999572e-01 -2.006600000000000050e-02 5.846599999999999714e-02 -2.790520000000000223e-01 -6.828399999999999748e-02 1.359760000000000135e-01 -4.247489999999999877e-01 -3.082000000000000017e-02 5.775500000000000078e-02 -4.045110000000000094e-01 -3.176910000000000012e-01 -1.900000000000000105e-04 -2.142820000000000003e-01 -2.087239999999999929e-01 1.220780000000000060e-01 -4.432380000000000209e-01 -2.152249999999999996e-01 8.706300000000000150e-02 -3.393249999999999877e-01 -2.299879999999999980e-01 2.100130000000000052e-01 -3.915480000000000071e-01 -2.497169999999999945e-01 2.687390000000000057e-01 -3.238300000000000067e-01