8.679678463848071601e+01 -8.899574895651427692e-05 -6.328586592463237410e-05 -8.899574895651427692e-05 8.679678661616404156e+01 1.582146648115809352e-05 -6.328586592463237410e-05 1.582146648115809352e-05 8.679673717408128653e+01
8.703727883972756274e+01 2.831567856132863881e-01 2.011561025247541601e-01 2.831567856132863881e-01 8.666826093320435120e+01 1.292257828514790097e-01 2.011561025247541601e-01 1.292257828514790097e-01 8.670772758134158664e+01
1.365675867428938091e+02 5.929216704346894629e-01 5.202090259132374328e+00 5.929216704346894629e-01 1.050714070736057550e+02 1.344048653724812681e+01 5.202090259132374328e+00 1.344048653724812681e+01 5.303346666011336907e+01
1.361832053643056497e+02 8.620077418266578473e-01 5.396012220435336459e+00 8.620077418266578473e-01 1.053697454031300680e+02 1.321479534465576045e+01 5.396012220435336459e+00 1.321479534465576045e+01 5.305182048296445885e+01
1.094691519427547632e+02 8.285654863808135318e+00 5.397390256760559168e+00 8.285654863808135318e+00 1.064641969899158909e+02 -1.608560039506066186e+00 5.397390256760559168e+00 -1.608560039506066186e+00 1.311986137011043922e+02
1.097437892272013187e+02 8.307563785493869091e+00 5.413509842979661535e+00 8.307563785493869091e+00 1.065017481049746664e+02 -1.528303103300605148e+00 5.413509842979661535e+00 -1.528303103300605148e+00 1.308803915864612293e+02
7.888173906252119139e+01 1.639635099261629847e+01 1.293165876261535452e+01 1.639635099261629847e+01 5.340111770506993594e+01 9.681238575492871590e+00 1.293165876261535452e+01 9.681238575492871590e+00 1.268151266511324025e+02
7.885866516989848662e+01 1.618582431177298631e+01 1.278676528180478833e+01 1.618582431177298631e+01 5.361816401664569298e+01 9.589193225371303697e+00 1.278676528180478833e+01 9.589193225371303697e+00 1.264226818183314691e+02
9.271656973675776214e+01 1.661413036758718986e+00 3.617151510176600304e+00 1.661413036758718986e+00 1.019344364576694630e+02 -4.658413342155570902e+00 3.617151510176600304e+00 -4.658413342155570902e+00 7.435971514169128227e+01
9.296129702116026294e+01 1.845278545318972174e+00 3.746455703088746425e+00 1.845278545318972174e+00 1.021208761148617015e+02 -4.634538950635289645e+00 3.746455703088746425e+00 -4.634538950635289645e+00 7.404352618248908868e+01
1.113679170517168586e+02 5.981878413907598890e+00 1.011316939247319358e+00 5.981878413907598890e+00 1.236361157976228071e+02 -6.404092782099423786e+00 1.011316939247319358e+00 -6.404092782099423786e+00 8.210041540400364113e+01
1.112028975814513387e+02 6.109650121460354022e+00 1.099324247285882628e+00 6.109650121460354022e+00 1.239252502579495996e+02 -6.570359996661442992e+00 1.099324247285882628e+00 -6.570359996661442992e+00 8.209556861914769854e+01
4.696359823692676372e+01 1.002755209497519751e+01 6.924699671085157604e+00 1.002755209497519751e+01 7.427674651629209279e+01 -1.130920200798555975e+01 6.924699671085157604e+00 -1.130920200798555975e+01 8.015376749088061104e+01
4.711044729443403867e+01 9.729230212469271777e+00 6.719521265657713016e+00 9.729230212469271777e+00 7.409893272333118830e+01 -1.120619190553554922e+01 6.719521265657713016e+00 -1.120619190553554922e+01 8.001751652527684655e+01
7.181528469000245707e+01 -1.663172292940240160e+00 -1.919200319632461404e-01 -1.663172292940240160e+00 1.039608782212089721e+02 -8.371051437261275652e+00 -1.919200319632461404e-01 -8.371051437261275652e+00 1.220605285740550272e+02
7.180481300543479506e+01 -1.785771792826660320e+00 -2.818382432916780034e-01 -1.785771792826660320e+00 1.039807087796511951e+02 -8.385316000159921401e+00 -2.818382432916780034e-01 -8.385316000159921401e+00 1.220934739852207969e+02
9.624352011580349142e+01 7.809531002147848122e-01 -7.999510637812250469e-01 7.809531002147848122e-01 8.809084608199715660e+01 2.201654169743064493e+00 -7.999510637812250469e-01 2.201654169743064493e+00 1.352830633342513238e+02
9.638027932359669592e+01 1.073340751256899317e+00 -5.862412654945438062e-01 1.073340751256899317e+00 8.785205543658301508e+01 2.333002954255212202e+00 -5.862412654945438062e-01 2.333002954255212202e+00 1.355123319421012127e+02
1.090024389273251302e+02 -1.225366365113210243e+01 -9.288037891640565036e+00 -1.225366365113210243e+01 8.028414429676230668e+01 8.986196364043353313e+00 -9.288037891640565036e+00 8.986196364043353313e+00 1.101556239740526308e+02
1.093257300775746614e+02 -1.254626119097206960e+01 -9.507358924706958092e+00 -1.254626119097206960e+01 8.016110978912368523e+01 9.159833116652514207e+00 -9.507358924706958092e+00 9.159833116652514207e+00 1.101400083692878127e+02
6.658137512953148018e+01 -9.034267587766596774e-01 -3.447202159353741635e+00 -9.034267587766596774e-01 5.776257496721841278e+01 6.776240567142485460e+00 -3.447202159353741635e+00 6.776240567142485460e+00 5.589039951204796353e+01
6.640884180694413885e+01 -1.178344579793489499e+00 -3.645637157963356856e+00 -1.178344579793489499e+00 5.761365581411478587e+01 6.765042520693834049e+00 -3.645637157963356856e+00 6.765042520693834049e+00 5.626142357573278474e+01
5.256652904307276231e+01 -9.767734568700007003e+00 -8.097667530711881057e+00 -9.767734568700007003e+00 7.479742892961587586e+01 -9.983492842935604017e+00 -8.097667530711881057e+00 -9.983492842935604017e+00 4.272294677959045828e+01
5.256668703311835600e+01 -9.673884323985822320e+00 -8.035818585495553279e+00 -9.673884323985822320e+00 7.451954938521693350e+01 -9.887154255003352432e+00 -8.035818585495553279e+00 -9.887154255003352432e+00 4.291064934783521068e+01
1.179713108578853848e+02 6.419729942428139324e+00 1.753320359109779458e+00 6.419729942428139324e+00 1.102656229841936977e+02 3.699371821897656787e+00 1.753320359109779458e+00 3.699371821897656787e+00 1.213205826934597411e+02
1.178014779935142116e+02 6.176944290191594078e+00 1.578172000938306008e+00 6.176944290191594078e+00 1.100237850409941416e+02 3.717102114919021982e+00 1.578172000938306008e+00 3.717102114919021982e+00 1.217725604554420329e+02
1.358269749750513142e+02 -1.113065081578860038e+01 -7.508569536725254068e+00 -1.113065081578860038e+01 1.075822094686215564e+02 1.034930481303404548e+01 -7.508569536725254068e+00 1.034930481303404548e+01 7.816849983758309861e+01
1.357767375338456191e+02 -1.121084743930188843e+01 -7.551614007650084837e+00 -1.121084743930188843e+01 1.078363130552286009e+02 1.025672221745861279e+01 -7.551614007650084837e+00 1.025672221745861279e+01 7.804161230682204575e+01
8.510885327871523032e+01 1.721534250605114558e+00 2.857195902520273556e+00 1.721534250605114558e+00 8.942477727781302121e+01 1.598546654522328803e+00 2.857195902520273556e+00 1.598546654522328803e+00 8.943357761305490783e+01
8.487429543110545183e+01 1.386738630714564824e+00 2.611562145204857188e+00 1.386738630714564824e+00 8.960207867202467469e+01 1.453201983395800978e+00 2.611562145204857188e+00 1.453201983395800978e+00 8.952402034972108424e+01
1.430076293638994969e+02 -2.345923906862243058e+01 -1.721572509356176539e+01 -2.345923906862243058e+01 1.228401955124739402e+02 8.721774305530619387e+00 -1.721572509356176539e+01 8.721774305530619387e+00 1.175274736134507236e+02
1.430425236726618152e+02 -2.333426762620214134e+01 -1.713364068813974583e+01 -2.333426762620214134e+01 1.230613034229974545e+02 8.653564843782950433e+00 -1.713364068813974583e+01 8.653564843782950433e+00 1.172779688651008030e+02
5.960143232187500217e+01 -1.822354744826547090e+01 -1.314964053814250278e+01 -1.822354744826547090e+01 7.814680029232096103e+01 -3.259509012612533230e+00 -1.314964053814250278e+01 -3.259509012612533230e+00 9.845325638656612455e+01
5.958611441286055310e+01 -1.833367149896822923e+01 -1.322757812340041461e+01 -1.833367149896822923e+01 7.820168077356996150e+01 -3.285416659930712857e+00 -1.322757812340041461e+01 -3.285416659930712857e+00 9.850865642496999897e+01
1.160594107960649524e+02 -8.560818459623554588e+00 -1.666613920990666076e+00 -8.560818459623554588e+00 6.595646247845515120e+01 1.783702846457649471e+01 -1.666613920990666076e+00 1.783702846457649471e+01 9.229845742385533924e+01
1.158745619100383379e+02 -8.267811929484178535e+00 -1.450276996909146243e+00 -8.267811929484178535e+00 6.598589314329464628e+01 1.776011299651871056e+01 -1.450276996909146243e+00 1.776011299651871056e+01 9.236465724250821552e+01
1.304668905586203778e+02 9.769389560162174746e+00 4.573576829530618504e+00 9.769389560162174746e+00 1.248045981993300728e+02 3.213918044843644961e-01 4.573576829530618504e+00 3.213918044843644961e-01 6.767964692471170451e+01
1.303360868573156779e+02 9.707327840136491304e+00 4.540046872069880557e+00 9.707327840136491304e+00 1.254023250878878457e+02 5.772214243656226262e-02 4.540046872069880557e+00 5.772214243656226262e-02 6.738922165464317970e+01
7.878817701980902655e+01 -1.575978122353291333e+01 -1.248925915398033126e+01 -1.575978122353291333e+01 9.474420226209825557e+01 -9.655851920595350801e-01 -1.248925915398033126e+01 -9.655851920595350801e-01 8.794677697687208706e+01
7.903829194567491356e+01 -1.583386657357969796e+01 -1.254727656278601700e+01 -1.583386657357969796e+01 9.474166532281542175e+01 -8.700218728076356545e-01 -1.254727656278601700e+01 -8.700218728076356545e-01 8.773214558602606417e+01
6.706304358992487380e+01 -1.248039663915552655e+00 -3.445379059187012594e+00 -1.248039663915552655e+00 1.097802367718408902e+02 -1.579425774988802189e+01 -3.445379059187012594e+00 -1.579425774988802189e+01 8.360268321765308031e+01
6.740160733069896537e+01 -1.447772414499992166e+00 -3.592071470256552157e+00 -1.447772414499992166e+00 1.097623263526265305e+02 -1.566682195954337864e+01 -3.592071470256552157e+00 -1.566682195954337864e+01 8.327490690633617021e+01
1.209226794911459137e+02 -4.591831370900837150e+00 -1.725897970778227597e+00 -4.591831370900837150e+00 8.218664940122285145e+01 1.007818055228270104e+01 -1.725897970778227597e+00 1.007818055228270104e+01 1.193717525964998316e+02
1.204546438494399894e+02 -4.649779152269428728e+00 -1.771521252144350855e+00 -4.649779152269428728e+00 8.205854633109137808e+01 9.971383562220854202e+00 -1.771521252144350855e+00 9.971383562220854202e+00 1.200343680426331332e+02
1.054777504394660781e+02 1.664523319673136825e+01 1.184920264079725705e+01 1.664523319673136825e+01 5.700950215956218159e+01 1.661527494978406949e+01 1.184920264079725705e+01 1.661527494978406949e+01 7.065229595464859358e+01
1.053119383001120895e+02 1.635551949187778575e+01 1.163285406016430201e+01 1.635551949187778575e+01 5.687873248092313361e+01 1.659855818363034174e+01 1.163285406016430201e+01 1.659855818363034174e+01 7.089096037229330705e+01
1.225765916078269697e+02 5.841918788800422035e+00 1.451145695776971278e+00 5.841918788800422035e+00 1.088723299302259164e+02 4.322543394997534705e+00 1.451145695776971278e+00 4.322543394997534705e+00 1.250322574179788546e+02
1.225485900749003747e+02 6.273747977096637563e+00 1.757993627831291539e+00 6.273747977096637563e+00 1.087518452842742107e+02 4.354990633192179494e+00 1.757993627831291539e+00 4.354990633192179494e+00 1.252580438156822851e+02
7.213728525994292795e+01 -1.864574819269401829e+01 -1.443708719959241371e+01 -1.864574819269401829e+01 1.138360634529727662e+02 -1.025775912189893901e+01 -1.443708719959241371e+01 -1.025775912189893901e+01 9.554347227462629633e+01
7.225290425085148627e+01 -1.862838045742364201e+01 -1.442213366378645212e+01 -1.862838045742364201e+01 1.134441734300102951e+02 -1.006945548282961589e+01 -1.442213366378645212e+01 -1.006945548282961589e+01 9.575481074705939477e+01
9.109127804874296430e+01 4.678858100014724464e+00 4.935582443343522918e+00 4.678858100014724464e+00 1.245779353784030832e+02 -1.305246813895139191e+01 4.935582443343522918e+00 -1.305246813895139191e+01 1.142681519676842328e+02
9.123434790820211049e+01 4.500602146875854359e+00 4.817418391694797464e+00 4.500602146875854359e+00 1.245598779989486928e+02 -1.300237180909362245e+01 4.817418391694797464e+00 -1.300237180909362245e+01 1.141203260428851678e+02
6.847720078486193529e+01 1.112154879051379908e+01 9.053420353147968669e+00 1.112154879051379908e+01 6.437551468588914361e+01 4.985536699894491441e+00 9.053420353147968669e+00 4.985536699894491441e+00 7.145916099877810268e+01
6.834955405974812948e+01 1.079069201700542457e+01 8.809641663460222816e+00 1.079069201700542457e+01 6.448884642374065379e+01 4.891174765778383282e+00 8.809641663460222816e+00 4.891174765778383282e+00 7.142568667278392525e+01
6.808410917951434271e+01 -1.153817626118755157e+00 -2.915748940766627495e+00 -1.153817626118755157e+00 9.603927137681003501e+01 -1.129650370968172624e+01 -2.915748940766627495e+00 -1.129650370968172624e+01 1.173109972571036224e+02
6.807600172810735728e+01 -1.441007446477896803e+00 -3.111195311001425878e+00 -1.441007446477896803e+00 9.559352409011790996e+01 -1.112618848048700748e+01 -3.111195311001425878e+00 -1.112618848048700748e+01 1.178370827289456173e+02
8.892932082410528949e+01 4.147207194274338704e+00 4.734231555540577396e+00 4.147207194274338704e+00 1.165684490561885980e+02 -8.188755687026178620e+00 4.734231555540577396e+00 -8.188755687026178620e+00 8.713797723470496237e+01
8.885658168670573787e+01 4.304850506368330443e+00 4.845310997681678167e+00 4.304850506368330443e+00 1.163835054539989358e+02 -8.147626182533660000e+00 4.845310997681678167e+00 -8.147626182533660000e+00 8.742609592440301469e+01
1.301464961807415079e+02 1.538867812268185098e+01 1.074659413911025041e+01 1.538867812268185098e+01 1.237171298636702232e+02 2.594003728497435102e+00 1.074659413911025041e+01 2.594003728497435102e+00 1.067868826163757632e+02
1.305147081794140433e+02 1.505092745081577021e+01 1.050370766602145167e+01 1.505092745081577021e+01 1.237736363311093868e+02 2.683429144473039152e+00 1.050370766602145167e+01 2.683429144473039152e+00 1.063609814786576067e+02
3.135915326908407152e+01 2.822328179681353203e-05 1.736817341342371384e-05 2.822328179681353203e-05 3.135923359688611001e+01 -2.388123844345760611e-05 1.736817341342371384e-05 -2.388123844345760611e-05 3.135921405769101966e+01
3.123823170373646008e+01 -5.614044953721546855e-02 -4.106921705771705150e-02 -5.614044953721546855e-02 3.148588883048182652e+01 -8.722296688221388428e-02 -4.106921705771705150e-02 -8.722296688221388428e-02 3.137300438738127539e+01
2.068182953005394964e+01 -5.688939966312100083e+00 1.184802207602076995e+00 -5.688939966312100083e+00 7.485180808715862000e+00 4.888669753471581281e+00 1.184802207602076995e+00 4.888669753471581281e+00 4.907014252027012446e+01
2.061607050088901616e+01 -5.745458562874145692e+00 1.141219777500012800e+00 -5.745458562874145692e+00 7.758895685771940443e+00 4.767479108290807233e+00 1.141219777500012800e+00 4.767479108290807233e+00 4.875111482791923123e+01
3.803120304699313436e+01 -1.018216616915698580e+01 -1.053110691099459117e+01 -1.018216616915698580e+01 3.684821829334758547e+01 3.609475863135217732e+00 -1.053110691099459117e+01 3.609475863135217732e+00 6.909230712750373016e+01
3.816001690019270853e+01 -1.032680193258445200e+01 -1.064058381163533618e+01 -1.032680193258445200e+01 3.699168096941851047e+01 3.615157741284799719e+00 -1.064058381163533618e+01 3.615157741284799719e+00 6.885339396220624053e+01
7.570939024060099598e+01 -9.694739405370400576e+00 -5.607530434910494854e+00 -9.694739405370400576e+00 8.032918578624854433e+01 -4.207959408574697413e+00 -5.607530434910494854e+00 -4.207959408574697413e+00 7.583116671007492471e+01
7.571561871276554712e+01 -9.709344791097345606e+00 -5.614905411783614575e+00 -9.709344791097345606e+00 8.048973057956298760e+01 -4.270521218923906126e+00 -5.614905411783614575e+00 -4.270521218923906126e+00 7.569755574191050584e+01
8.570598485877691530e+01 1.552296025858456652e+01 1.284551007720317628e+01 1.552296025858456652e+01 5.422393624705939885e+01 1.308346218435090691e+01 1.284551007720317628e+01 1.308346218435090691e+01 7.894020558484457695e+01
8.532023849941137428e+01 1.553673257553644760e+01 1.286204414662820561e+01 1.553673257553644760e+01 5.425775556638419772e+01 1.293766838040543732e+01 1.286204414662820561e+01 1.293766838040543732e+01 7.930021135829285583e+01
5.091365990257840934e+01 -1.116277019941772197e+00 3.486848695470424975e+00 -1.116277019941772197e+00 1.467385048094876510e+01 8.364612480736672850e+00 3.486848695470424975e+00 8.364612480736672850e+00 7.046172498031975806e+01
5.097439258108977356e+01 -1.104278897138637472e+00 3.498475786025716516e+00 -1.104278897138637472e+00 1.474138895097771851e+01 8.366109330833689128e+00 3.498475786025716516e+00 8.366109330833689128e+00 7.036379366873170227e+01
9.479653531930031463e+00 -7.399504202283835319e+00 4.337014703713873431e-01 -7.399504202283835319e+00 1.550410228058970041e+01 9.019787945332146143e-04 4.337014703713873431e-01 9.019787945332146143e-04 1.647713995179671542e+01
9.425366524632192267e+00 -7.358742389447304966e+00 4.581244534024669912e-01 -7.358742389447304966e+00 1.536065848379044141e+01 3.068074138419695646e-02 4.581244534024669912e-01 3.068074138419695646e-02 1.673622999493386487e+01
5.057655326831232401e+01 -1.731702066645488713e+01 -1.301947846021358046e+01 -1.731702066645488713e+01 2.230656892387358425e+01 7.255914285247270001e+00 -1.301947846021358046e+01 7.255914285247270001e+00 6.104941291693660332e+01
5.060865609424118361e+01 -1.741366058307966114e+01 -1.308923783721876433e+01 -1.741366058307966114e+01 2.250892083301433999e+01 7.194583227928373681e+00 -1.308923783721876433e+01 7.194583227928373681e+00 6.080437975894839298e+01
4.765935756925431122e+01 -3.787975794638475335e+00 -3.556866397221923326e-01 -3.787975794638475335e+00 1.470154836496903172e+01 9.852093269521162711e+00 -3.556866397221923326e-01 9.852093269521162711e+00 2.968994921621598237e+01
4.769921166947532498e+01 -3.641737485524211504e+00 -2.499507833710192806e-01 -3.641737485524211504e+00 1.467145436375399825e+01 9.872692604650135095e+00 -2.499507833710192806e-01 9.872692604650135095e+00 2.972009543374312557e+01
1.595643874216839642e+01 8.480456775059414198e+00 3.929641174074206322e+00 8.480456775059414198e+00 3.459321348277045871e+01 -6.779294662344465650e+00 3.929641174074206322e+00 -6.779294662344465650e+00 2.110917002349732030e+01
1.599474477016853413e+01 8.490567451800105303e+00 3.940727674299892236e+00 8.490567451800105303e+00 3.470792450716005817e+01 -6.808714749174241909e+00 3.940727674299892236e+00 -6.808714749174241909e+00 2.099318800553922770e+01
1.551029053749326536e+01 -1.439491914711577669e+00 -2.842038650618568418e+00 -1.439491914711577669e+00 4.243383712488000725e+01 -6.206100590292869867e+00 -2.842038650618568418e+00 -6.206100590292869867e+00 9.139142073229788110e+00
1.548467927950264666e+01 -1.365663430719637139e+00 -2.792356345752037061e+00 -1.365663430719637139e+00 4.245198377290579828e+01 -6.221792181577717074e+00 -2.792356345752037061e+00 -6.221792181577717074e+00 9.178102564138555408e+00
5.737467285886670432e+00 -5.407729657372295939e+00 2.088371303522230438e+00 -5.407729657372295939e+00 1.914764424514959984e+01 -1.234305803872391083e+00 2.088371303522230438e+00 -1.234305803872391083e+00 4.967628408251746208e+01
5.854408812375161197e+00 -5.583775347383912013e+00 1.964805465783771909e+00 -5.583775347383912013e+00 1.896816763696070751e+01 -1.128545551751378051e+00 1.964805465783771909e+00 -1.128545551751378051e+00 4.979843136754800526e+01
5.779400961611221987e+01 1.812598499438188071e+01 1.339272293358208898e+01 1.812598499438188071e+01 4.968581017593051286e+01 2.180589017390132112e-01 1.339272293358208898e+01 2.180589017390132112e-01 7.014286522084735509e+01
5.761757308375056397e+01 1.777615297514825343e+01 1.314822411830046889e+01 1.777615297514825343e+01 4.981759778445196929e+01 9.058754906913636662e-02 1.314822411830046889e+01 9.058754906913636662e-02 7.003210823256387130e+01
8.525456155441274220e+00 4.370585766038245445e+00 -1.513492893969130559e+00 4.370585766038245445e+00 3.940489778571345170e+01 -1.089524704700884961e+01 -1.513492893969130559e+00 -1.089524704700884961e+01 7.243739955779830098e+01
8.563350565751767007e+00 4.528696926299267567e+00 -1.393983049355088211e+00 4.528696926299267567e+00 3.917531421165877958e+01 -1.078369095849898329e+01 -1.393983049355088211e+00 -1.078369095849898329e+01 7.270046473915387253e+01
5.238685792086488391e+01 1.030929625155550866e+01 9.137460945460539108e+00 1.030929625155550866e+01 1.392760792505833933e+01 8.684827357350284771e+00 9.137460945460539108e+00 8.684827357350284771e+00 6.855820233509916761e+00
5.207950291670174892e+01 1.014693332927771152e+01 9.025495939713428228e+00 1.014693332927771152e+01 1.384262700580771721e+01 8.603194104498564698e+00 9.025495939713428228e+00 8.603194104498564698e+00 7.088402607270166911e+00
6.385442169202347173e+01 6.230849114029831881e+00 6.714886462193300432e+00 6.230849114029831881e+00 1.751441622583597990e+01 1.411182028152414603e+01 6.714886462193300432e+00 1.411182028152414603e+01 5.794476791225899426e+00
6.373604005630033242e+01 6.119314267172007327e+00 6.634660908955073211e+00 6.119314267172007327e+00 1.760820848340095424e+01 1.403743309233753145e+01 6.634660908955073211e+00 1.403743309233753145e+01 5.753218872763016911e+00
5.607349881698736738e+01 -1.281431090238484494e+01 -1.151493277239024948e+01 -1.281431090238484494e+01 5.306477629437177157e+00 1.229189613676707182e+01 -1.151493277239024948e+01 1.229189613676707182e+01 2.098138462209281485e+01
5.596680920311498397e+01 -1.287000573944496118e+01 -1.155551025148899491e+01 -1.287000573944496118e+01 5.351224658252067279e+00 1.224400769641525777e+01 -1.155551025148899491e+01 1.224400769641525777e+01 2.104460744744170242e+01
1.189495154002971411e+01 -3.660874095162600206e+00 3.800903021283401184e+00 -3.660874095162600206e+00 2.691751020649758885e+01 -1.805674757804791586e+00 3.800903021283401184e+00 -1.805674757804791586e+00 7.945711825397143713e+00
1.187816381228183893e+01 -3.749171236816682740e+00 3.731788659517595086e+00 -3.749171236816682740e+00 2.699356820682169200e+01 -1.839567764564726815e+00 3.731788659517595086e+00 -1.839567764564726815e+00 7.917870182868692375e+00
3.104461777250420340e+01 -1.119318642410035558e+01 -9.482038296634902608e+00 -1.119318642410035558e+01 3.301630549694974803e+01 3.991305844910125522e+00 -9.482038296634902608e+00 3.991305844910125522e+00 3.113789582720923121e+01
3.085414414974446728e+01 -1.120653852500187142e+01 -9.489654116216081903e+00 -1.120653852500187142e+01 3.318762996719744507e+01 3.867562341512870372e+00 -9.489654116216081903e+00 3.867562341512870372e+00 3.120351037767324698e+01
8.967045751530795528e+00 3.535146301045984263e+00 6.754336932401685090e+00 3.535146301045984263e+00 -5.240936035293450423e+00 8.008390477303530375e+00 6.754336932401685090e+00 8.008390477303530375e+00 2.150912692084622790e+01
8.855072956097133741e+00 3.545412516762891375e+00 6.759380383943353721e+00 3.545412516762891375e+00 -5.225739857043462777e+00 7.960720554136058169e+00 6.759380383943353721e+00 7.960720554136058169e+00 2.165333286449916628e+01
6.453890707219693823e+00 9.170767900005424522e+00 1.261497398997020181e+00 9.170767900005424522e+00 2.689461874713843414e+01 -3.579884222965530327e+00 1.261497398997020181e+00 -3.579884222965530327e+00 2.411574512939851545e+01
6.578856590206862087e+00 9.076463666683848075e+00 1.191858887761886310e+00 9.076463666683848075e+00 2.697718660202330909e+01 -3.563953583221147525e+00 1.191858887761886310e+00 -3.563953583221147525e+00 2.387510160840692564e+01
1.064802099541055647e+01 7.600738055933157433e+00 7.652286032521128156e+00 7.600738055933157433e+00 2.939950076043747806e+00 1.546285547655682803e-02 7.652286032521128156e+00 1.546285547655682803e-02 6.712255339177377778e+01
1.092186948375737821e+01 7.689869117756832573e+00 7.724570489017360764e+00 7.689869117756832573e+00 3.082928774921864790e+00 6.259601111170355614e-02 7.724570489017360764e+00 6.259601111170355614e-02 6.644198567939847067e+01
4.274102306276103747e+01 1.267346406637977907e+01 6.573837455427552712e+00 1.267346406637977907e+01 3.374942086120244511e+01 4.944182045910715750e+00 6.573837455427552712e+00 4.944182045910715750e+00 3.979368589875485185e+01
4.263476476641021407e+01 1.284495247740085766e+01 6.703875420947406738e+00 1.284495247740085766e+01 3.415360450252723012e+01 4.776875547143895950e+00 6.703875420947406738e+00 4.776875547143895950e+00 3.954606139174641299e+01
1.610162685995026166e+01 -2.632132865237867270e-01 -5.508119203324713276e+00 -2.632132865237867270e-01 4.205248899021064801e+01 -6.805103366531328746e+00 -5.508119203324713276e+00 -6.805103366531328746e+00 1.342551644550116130e+01
1.610491994465203547e+01 -2.925668963804823330e-01 -5.526672816998955184e+00 -2.925668963804823330e-01 4.215994047170693193e+01 -6.840247959452203652e+00 -5.526672816998955184e+00 -6.840247959452203652e+00 1.338619326951723920e+01
5.189780729553766037e+01 -1.713538166448162769e+01 -1.259606304011636446e+01 -1.713538166448162769e+01 5.382974156477291672e+01 -9.011959126395829855e-01 -1.259606304011636446e+01 -9.011959126395829855e-01 6.464949211004636709e+01
5.200169855235283478e+01 -1.721104040419080761e+01 -1.264812193944431939e+01 -1.721104040419080761e+01 5.397583819002679917e+01 -9.084785053913060349e-01 -1.264812193944431939e+01 -9.084785053913060349e-01 6.443629961098999104e+01
5.218188695368613850e+01 -6.273718895953344976e+00 -5.051998496291081331e+00 -6.273718895953344976e+00 4.193944239609012214e+01 -2.730744670564362764e+00 -5.051998496291081331e+00 -2.730744670564362764e+00 2.922265295530015194e+01
5.190997112310281381e+01 -6.311631119786265565e+00 -5.077765410896562415e+00 -6.311631119786265565e+00 4.200010494094910740e+01 -2.846339512507017222e+00 -5.077765410896562415e+00 -2.846339512507017222e+00 2.942539193764723038e+01
1.629726916807665305e+01 -1.747626160757195635e+01 -1.270229282884991662e+01 -1.747626160757195635e+01 5.307144961726471877e+00 2.371032919068257971e+00 -1.270229282884991662e+01 2.371032919068257971e+00 2.194469121282593349e+01
1.638936188927153736e+01 -1.745563344856394039e+01 -1.268755458161959560e+01 -1.745563344856394039e+01 5.343642661995283483e+00 2.385371621978293444e+00 -1.268755458161959560e+01 2.385371621978293444e+00 2.179792152478922773e+01
2.465327581670073798e+01 1.345479577004002714e+01 9.809065564998926234e+00 1.345479577004002714e+01 3.922967588512454995e+01 -4.967579111472013587e+00 9.809065564998926234e+00 -4.967579111472013587e+00 1.985062294440516339e+01
2.473265793030887849e+01 1.330919554281530459e+01 9.711221477324849971e+00 1.330919554281530459e+01 3.907123539868572237e+01 -4.888658547215520400e+00 9.711221477324849971e+00 -4.888658547215520400e+00 1.984163038807992052e+01
-1.112954747393131605e+01 5.794324027730694660e+00 -1.170461866740684087e+00 5.794324027730694660e+00 -2.140688261860175245e+00 -7.298269288826310763e+00 -1.170461866740684087e+00 -7.298269288826310763e+00 1.740522686111343376e+01
-1.101245158162152293e+01 5.778558596695725136e+00 -1.189828655178911898e+00 5.778558596695725136e+00 -2.390656983448927964e+00 -7.159590565152194053e+00 -1.189828655178911898e+00 -7.159590565152194053e+00 1.753236513278925202e+01
3.306105674505410708e+00 -6.731788412159877666e+00 -5.172485001878799338e+00 -6.731788412159877666e+00 3.450835184920084231e+00 -2.948733717818415645e+00 -5.172485001878799338e+00 -2.948733717818415645e+00 6.109329983372656159e+01
3.384042398535803464e+00 -6.722475232645139798e+00 -5.161168392969994301e+00 -6.722475232645139798e+00 3.397061368996029618e+00 -2.897244475523838236e+00 -5.161168392969994301e+00 -2.897244475523838236e+00 6.107043196009042418e+01
4.163543810831075997e-02 -1.291736583969752092e-04 -9.226689885498229424e-05 -1.291736583969752092e-04 4.173001167963711483e-02 -3.229341459924380231e-05 -9.226689885498229424e-05 -3.229341459924380231e-05 4.172309166222299553e-02
2.587117710444276075e-01 1.499567773640599622e-01 1.055095055131436282e-01 1.499567773640599622e-01 -1.224151080558477482e-02 9.594142810188197035e-02 1.055095055131436282e-01 9.594142810188197035e-02 -1.098391297419136631e-01
9.403782655134472757e-01 -5.129170782968960118e+00 -7.861296598459560414e+00 -5.129170782968960118e+00 -4.896516781667937579e+00 -8.231705645295382956e-01 -7.861296598459560414e+00 -8.231705645295382956e-01 -1.032101341320795029e+01
1.053068299972333532e+00 -5.289584057980730947e+00 -7.974627354060469742e+00 -5.289584057980730947e+00 -4.917159651916366059e+00 -7.740190983037094075e-01 -7.974627354060469742e+00 -7.740190983037094075e-01 -1.033438468096819207e+01
-2.614936560462250625e+01 9.789538501873565224e+00 8.095238612921088261e+00 9.789538501873565224e+00 2.216508512516892537e+01 -1.671885699032497286e+01 8.095238612921088261e+00 -1.671885699032497286e+01 2.167117640487248309e+01
-2.600387994462722574e+01 9.898449605756377778e+00 8.171731828436612943e+00 9.898449605756377778e+00 2.222605492623080892e+01 -1.668383202896112039e+01 8.171731828436612943e+00 -1.668383202896112039e+01 2.146191015747661623e+01
-1.501261855698094294e+01 -6.203062601430547218e+00 1.297236596123326535e+00 -6.203062601430547218e+00 2.997339746708580321e+01 -1.301877392218063889e+01 1.297236596123326535e+00 -1.301877392218063889e+01 9.839185431127535963e+00
-1.497628535072895239e+01 -6.201299008007669755e+00 1.294423028265694553e+00 -6.201299008007669755e+00 3.008971963482181522e+01 -1.304903682168970924e+01 1.294423028265694553e+00 -1.304903682168970924e+01 9.736158394221208212e+00
-5.743475338891427029e+00 2.368239217810197861e+00 -2.624242937138693499e+00 2.368239217810197861e+00 2.116508517305631187e+01 -1.725571939770282448e+00 -2.624242937138693499e+00 -1.725571939770282448e+00 -1.146240521312536309e+01
-5.741912768996204619e+00 2.461118924689652765e+00 -2.561832192575491884e+00 2.461118924689652765e+00 2.120417703581055591e+01 -1.740935292672344925e+00 -2.561832192575491884e+00 -1.740935292672344925e+00 -1.145177559553180124e+01
1.062768401096698234e+01 -9.492914768631045552e-01 4.790023033071649117e+00 -9.492914768631045552e-01 -2.538096306406661284e+01 1.045065622084529267e+01 4.790023033071649117e+00 1.045065622084529267e+01 1.937442240426929274e+01