6.193081055999999585e+00 0.000000000000000000e+00 0.000000000000000000e+00 -1.545785643000000098e+00 8.004204023999999862e+00 0.000000000000000000e+00 -1.546266230999999935e+00 2.665685276000000048e+00 7.557120081999999961e+00
6.084311947999999859e+00 0.000000000000000000e+00 0.000000000000000000e+00 -1.507137524000000006e+00 7.920301744999999727e+00 0.000000000000000000e+00 -1.507513609000000088e+00 2.615893312999999942e+00 7.473135876999999816e+00
6.111331883000000076e+00 0.000000000000000000e+00 0.000000000000000000e+00 -1.532752875999999986e+00 7.888776269000000063e+00 0.000000000000000000e+00 -1.530379211999999933e+00 2.622002077999999958e+00 7.428484735999999700e+00
6.142041453000000040e+00 0.000000000000000000e+00 0.000000000000000000e+00 4.612286910999999989e+00 7.971760190000000357e+00 0.000000000000000000e+00 4.613378842000000368e+00 2.658379142999999889e+00 7.517050734999999761e+00
6.042211950000000442e+00 0.000000000000000000e+00 0.000000000000000000e+00 -1.479137850000000087e+00 7.874577657999999758e+00 0.000000000000000000e+00 -1.451164388000000027e+00 2.563881700000000041e+00 7.417855161000000308e+00
6.115326136000000190e+00 0.000000000000000000e+00 0.000000000000000000e+00 -1.545256176000000092e+00 7.863928850999999831e+00 0.000000000000000000e+00 -1.545453683000000078e+00 2.601100569000000196e+00 7.426315015000000130e+00
6.086085596000000209e+00 0.000000000000000000e+00 0.000000000000000000e+00 -1.499067967000000001e+00 7.783953789999999984e+00 0.000000000000000000e+00 -1.506246120999999993e+00 2.454567535999999883e+00 7.363106321000000065e+00
6.201450795000000404e+00 0.000000000000000000e+00 0.000000000000000000e+00 -1.543075253999999896e+00 8.019527395000000780e+00 0.000000000000000000e+00 -1.534320898000000044e+00 2.689338859999999887e+00 7.599382449000000150e+00
6.145712686999999619e+00 0.000000000000000000e+00 0.000000000000000000e+00 -1.474663789000000058e+00 7.989564194999999813e+00 0.000000000000000000e+00 -1.432561162999999915e+00 2.529224446000000182e+00 7.531086358999999675e+00
6.129351594000000070e+00 0.000000000000000000e+00 0.000000000000000000e+00 -1.540006602999999918e+00 7.936592019999999970e+00 0.000000000000000000e+00 -1.517572045000000092e+00 2.725865574999999819e+00 7.464475987000000146e+00
6.039933955000000410e+00 0.000000000000000000e+00 0.000000000000000000e+00 -1.505921081000000106e+00 7.800632778999999850e+00 0.000000000000000000e+00 -1.499561345999999906e+00 2.598733246000000108e+00 7.349463312000000137e+00
6.050307532999999793e+00 0.000000000000000000e+00 0.000000000000000000e+00 -1.522603331000000004e+00 7.859282180000000118e+00 0.000000000000000000e+00 -1.526830332000000068e+00 2.614577350999999883e+00 7.418931171999999741e+00
6.097381680999999887e+00 0.000000000000000000e+00 0.000000000000000000e+00 -1.529504369999999946e+00 7.879388212000000280e+00 0.000000000000000000e+00 -1.528126110000000093e+00 2.620682855000000089e+00 7.455383694000000006e+00
6.104090078999999669e+00 0.000000000000000000e+00 0.000000000000000000e+00 -1.502651329000000091e+00 7.859260959000000213e+00 0.000000000000000000e+00 -1.508470191000000016e+00 2.624979655000000189e+00 7.402150482999999781e+00
6.201543363999999947e+00 0.000000000000000000e+00 0.000000000000000000e+00 -1.511871554000000062e+00 8.118719077999999811e+00 0.000000000000000000e+00 -1.459251021999999898e+00 2.729312318999999931e+00 7.614951802000000214e+00
6.169303196999999628e+00 0.000000000000000000e+00 0.000000000000000000e+00 -1.525242798999999927e+00 8.023629461000000518e+00 0.000000000000000000e+00 -1.503303124999999962e+00 2.660437858999999960e+00 7.592892378000000164e+00
6.150584299000000144e+00 0.000000000000000000e+00 0.000000000000000000e+00 -1.525923922999999904e+00 7.857837450999999973e+00 0.000000000000000000e+00 -1.524107904999999930e+00 2.589110058999999797e+00 7.440644119999999972e+00
6.080276174999999839e+00 0.000000000000000000e+00 0.000000000000000000e+00 -1.534514281000000091e+00 7.823950552000000336e+00 0.000000000000000000e+00 -1.532443913999999907e+00 2.599141465999999845e+00 7.395651404999999734e+00
6.121772806000000067e+00 0.000000000000000000e+00 0.000000000000000000e+00 -1.511774082999999935e+00 7.859161428000000171e+00 0.000000000000000000e+00 -1.518775874999999997e+00 2.587794655000000166e+00 7.413699247000000270e+00
6.064927688000000039e+00 0.000000000000000000e+00 0.000000000000000000e+00 -1.479696169999999977e+00 7.853503017999999614e+00 0.000000000000000000e+00 -1.466282515000000064e+00 2.687140369000000195e+00 7.362426445999999736e+00
6.215567404999999823e+00 0.000000000000000000e+00 0.000000000000000000e+00 -1.531027402999999953e+00 8.039896519999999214e+00 0.000000000000000000e+00 -1.512933137000000094e+00 2.686396993999999872e+00 7.627334763000000351e+00
6.080133534999999867e+00 0.000000000000000000e+00 0.000000000000000000e+00 -1.530468281000000097e+00 7.830674612000000145e+00 0.000000000000000000e+00 -1.534648178999999946e+00 2.609588496999999840e+00 7.405860556999999567e+00
6.353676890000000022e+00 0.000000000000000000e+00 0.000000000000000000e+00 -1.673643554999999949e+00 8.060401361000000264e+00 0.000000000000000000e+00 -1.628718123000000073e+00 2.544877086000000066e+00 7.690670078000000132e+00
6.105861642999999894e+00 0.000000000000000000e+00 0.000000000000000000e+00 -1.580673696999999933e+00 8.115972689999999545e+00 0.000000000000000000e+00 -1.658926185000000109e+00 2.639626293000000068e+00 7.531369302999999960e+00
6.171113688000000153e+00 0.000000000000000000e+00 0.000000000000000000e+00 -1.596471675999999951e+00 7.877088961000000111e+00 0.000000000000000000e+00 -1.547009955000000048e+00 2.480369902000000071e+00 7.518675009999999936e+00
6.090788322999999949e+00 0.000000000000000000e+00 0.000000000000000000e+00 -1.506129658000000093e+00 7.767981057000000078e+00 0.000000000000000000e+00 -1.468956659000000053e+00 2.547010495999999957e+00 7.327235533999999717e+00
6.037031846999999729e+00 0.000000000000000000e+00 0.000000000000000000e+00 -1.517197050999999908e+00 7.843422310000000230e+00 0.000000000000000000e+00 -1.512738901000000080e+00 2.585251909000000126e+00 7.404239190000000193e+00
6.143196939000000079e+00 0.000000000000000000e+00 0.000000000000000000e+00 -1.547977428999999905e+00 7.950923826000000361e+00 0.000000000000000000e+00 -1.537215286999999986e+00 2.643258196000000115e+00 7.489144156000000052e+00
6.195478302999999798e+00 0.000000000000000000e+00 0.000000000000000000e+00 4.645257843999999636e+00 8.006993290000000485e+00 0.000000000000000000e+00 4.652227253999999590e+00 2.668020070999999938e+00 7.549688031999999716e+00
6.035021121999999849e+00 0.000000000000000000e+00 0.000000000000000000e+00 -1.508213817999999984e+00 7.845495654999999680e+00 0.000000000000000000e+00 -1.532757866999999941e+00 2.617312099999999919e+00 7.423264403000000122e+00
6.070257527999999958e+00 0.000000000000000000e+00 0.000000000000000000e+00 -1.497889873999999955e+00 7.880732567999999993e+00 0.000000000000000000e+00 -1.504472809999999994e+00 2.605776684999999926e+00 7.433032069000000241e+00
6.154708661999999997e+00 0.000000000000000000e+00 0.000000000000000000e+00 -1.554837757000000042e+00 8.009905906000000186e+00 0.000000000000000000e+00 -1.552449707999999928e+00 2.657432528999999821e+00 7.546076615999999682e+00
6.050416157999999989e+00 0.000000000000000000e+00 0.000000000000000000e+00 -1.570091402999999941e+00 7.852718576000000006e+00 0.000000000000000000e+00 -1.568400535000000096e+00 2.617428314000000089e+00 7.445967289000000378e+00
6.066528292000000100e+00 0.000000000000000000e+00 0.000000000000000000e+00 -1.543763540000000045e+00 7.894366352999999670e+00 0.000000000000000000e+00 -1.529324665000000083e+00 2.604265375000000216e+00 7.463442545000000372e+00
6.152280013000000380e+00 0.000000000000000000e+00 0.000000000000000000e+00 4.614525265000000154e+00 8.000751889000000006e+00 0.000000000000000000e+00 4.616898789999999586e+00 2.663573468000000055e+00 7.524864348999999564e+00
6.074722343000000357e+00 0.000000000000000000e+00 0.000000000000000000e+00 -1.532115230000000050e+00 7.905135715000000118e+00 0.000000000000000000e+00 -1.529204956999999920e+00 2.535877578000000021e+00 7.477546523000000001e+00
6.163160595999999991e+00 0.000000000000000000e+00 0.000000000000000000e+00 -1.509000533000000033e+00 7.939888340999999627e+00 0.000000000000000000e+00 -1.503467367999999915e+00 2.535608991999999784e+00 7.520917986999999805e+00
6.100297904999999687e+00 0.000000000000000000e+00 0.000000000000000000e+00 -1.528518824000000054e+00 7.884162295000000320e+00 0.000000000000000000e+00 -1.535357179000000016e+00 2.619252326999999880e+00 7.442339684000000233e+00
6.136499927000000021e+00 0.000000000000000000e+00 0.000000000000000000e+00 -1.507412682000000004e+00 7.861047701999999582e+00 0.000000000000000000e+00 -1.543116109999999930e+00 2.542838730999999797e+00 7.406054486000000381e+00
6.068804234999999991e+00 0.000000000000000000e+00 0.000000000000000000e+00 -1.527626044000000016e+00 7.882042022000000259e+00 0.000000000000000000e+00 -1.532336909999999941e+00 2.625622955999999952e+00 7.442691371999999639e+00
6.081485923999999876e+00 0.000000000000000000e+00 0.000000000000000000e+00 -1.501381622000000027e+00 7.842109288999999706e+00 0.000000000000000000e+00 -1.506168839999999953e+00 2.633295610999999870e+00 7.411317412999999910e+00
6.094455995999999764e+00 0.000000000000000000e+00 0.000000000000000000e+00 -1.475979807000000088e+00 7.893110220999999704e+00 0.000000000000000000e+00 -1.483651932999999978e+00 2.698767543999999852e+00 7.423807433000000344e+00
6.064595934999999827e+00 0.000000000000000000e+00 0.000000000000000000e+00 -1.604323264000000027e+00 7.832202393000000207e+00 0.000000000000000000e+00 -1.619860894000000107e+00 2.489967356000000187e+00 7.419701556999999781e+00
6.139789622000000335e+00 0.000000000000000000e+00 0.000000000000000000e+00 -1.572610070999999943e+00 7.968459639999999844e+00 0.000000000000000000e+00 -1.545250481000000065e+00 2.549497114999999869e+00 7.496383680000000105e+00
6.003049546999999819e+00 0.000000000000000000e+00 0.000000000000000000e+00 -1.498830027999999981e+00 7.870675223000000109e+00 0.000000000000000000e+00 -1.495021142999999997e+00 2.576537211000000216e+00 7.412862439000000414e+00
6.105390275000000422e+00 0.000000000000000000e+00 0.000000000000000000e+00 -1.534343192999999994e+00 7.889876910999999993e+00 0.000000000000000000e+00 -1.534115048999999953e+00 2.647710849000000088e+00 7.441167646000000246e+00
6.065190574999999917e+00 0.000000000000000000e+00 0.000000000000000000e+00 -1.517674729999999972e+00 7.885097613000000116e+00 0.000000000000000000e+00 -1.509954121999999899e+00 2.611900818000000069e+00 7.423456007000000412e+00
6.038876151000000192e+00 0.000000000000000000e+00 0.000000000000000000e+00 -1.521921628999999943e+00 7.794274973000000273e+00 0.000000000000000000e+00 -1.532334287999999933e+00 2.596663293999999844e+00 7.347743112999999937e+00
6.165934206000000195e+00 0.000000000000000000e+00 0.000000000000000000e+00 4.601922539000000256e+00 7.973536001000000262e+00 0.000000000000000000e+00 4.604718667000000210e+00 2.662217565999999813e+00 7.509236522000000136e+00
6.161658487999999601e+00 0.000000000000000000e+00 0.000000000000000000e+00 -1.545001161000000067e+00 7.992086396000000370e+00 0.000000000000000000e+00 -1.543264522999999944e+00 2.666464912999999992e+00 7.546536481000000407e+00
