-1.525479999999999947e+00 9.701490000000000391e-01 -3.701720000000000010e-01 -6.576629999999999976e-01 6.641000000000000202e-03 9.192630000000000523e-01 9.253109999999999946e-01 -1.546353000000000089e+00 -6.703029999999999822e-01 4.498179999999999956e-01 -1.207109999999999989e-01 1.171345999999999998e+00 -2.962219999999999853e-01 -3.873759999999999981e-01 -8.615690000000000293e-01 -1.912396999999999903e+00 9.582810000000000494e-01 9.360870000000000024e-01 -2.460882999999999932e+00 2.194427000000000127e+00 6.501590000000000424e-01 5.757609999999999673e-01 -2.220429999999999904e-01 -4.175980000000000247e-01 1.414189999999999892e-01 -6.058850000000000069e-01 1.043359999999999982e-01 -7.948049999999999837e-01 -5.167500000000000426e-01 -8.710240000000000204e-01 -1.075817000000000023e+00 -8.386019999999999586e-01 -1.105209000000000108e+00 2.653249999999999775e-01 1.198811999999999989e+00 1.147480999999999973e+00 -4.246409999999999907e-01 -2.853749999999999898e-01 9.811229999999999674e-01 6.515220000000000455e-01 -3.161370000000000013e-01 1.308092000000000033e+00 -1.174860000000000015e+00 -8.304160000000000430e-01 -1.212115999999999971e+00 3.143638999999999850e+00 8.428679999999999506e-01 1.172601999999999922e+00 -1.228489999999999999e-01 2.069020000000000026e-01 -6.687159999999999771e-01 8.956239999999999757e-01 9.147549999999999848e-01 -1.272354999999999903e+00 1.357723999999999931e+00 7.916900000000000326e-02 -6.056749999999999634e-01 7.174739999999999451e-01 1.622135000000000105e+00 4.146610000000000018e-01 3.965810000000000168e-01 6.100069999999999659e-01 2.651699999999999890e-02 1.668350000000000000e+00 -4.117930000000000201e-01 -1.793406000000000056e+00 1.162849999999999995e-01 8.695899999999999741e-01 1.289909999999999946e-01 8.629590000000000316e-01 -2.657930000000000015e-01 -3.374809999999999754e-01 1.666620000000000046e-01 -2.355658000000000030e+00 -1.740359999999999907e+00 -4.527510000000000145e-01 2.118869999999999920e-01 1.223756999999999984e+00 9.912609999999999477e-01 -8.853079999999999838e-01 1.228701000000000043e+00 1.113399999999999945e+00 4.737759999999999749e-01 -9.304919999999999858e-01 6.129529999999999701e-01 1.028799999999999992e-01 1.429735999999999896e+00 -1.808071999999999901e+00 5.276640000000000219e-01 4.939529999999999754e-01 -2.706122000000000138e+00 -8.644979999999999887e-01 -1.057714999999999961e+00 5.721709999999999852e-01 5.226699999999999680e-01 7.369719999999999605e-01 2.154672000000000143e+00 -9.367910000000000403e-01 -1.228191000000000033e+00 -3.467990000000000239e-01 -4.163819999999999744e-01 8.313249999999999806e-01 -2.019547999999999899e+00 -5.067430000000000545e-01 2.372809999999999919e-01
-1.697279999999999900e-01 3.345890000000000253e-01 -3.680590000000000250e-01 1.168089999999999962e-01 1.357980000000000020e-01 1.704130000000000089e-01 -2.570999999999999952e-01 6.735079999999999956e-01 -2.388560000000000128e-01 -3.279500000000000193e-01 -6.034599999999999964e-01 -1.850890000000000035e-01 -2.544279999999999875e-01 -2.624699999999999950e-02 6.316389999999999505e-01 6.396519999999999984e-01 -5.993519999999999959e-01 -3.874279999999999946e-01 -3.882775000000000087e+00 2.680756999999999834e+00 1.848008000000000095e+00 -1.132620000000000016e-01 -3.485389999999999877e-01 3.965130000000000043e-01 -1.898080000000000045e-01 -4.197339999999999960e-01 -5.037530000000000063e-01 6.300300000000000344e-02 -5.252289999999999459e-01 1.659730000000000094e-01 8.512999999999999734e-03 -4.962219999999999964e-01 -2.910179999999999989e-01 4.754840000000000177e-01 6.553649999999999753e-01 -2.941210000000000213e-01 -1.336500000000000014e-02 -4.514343000000000217e+00 1.794840999999999909e+00 5.643190000000000150e-01 -8.966699999999999671e-02 6.981659999999999533e-01 -4.741500000000000159e-01 -5.895799999999999930e-01 -3.821240000000000192e-01 3.949183000000000110e+00 2.603883000000000170e+00 1.804974000000000078e+00 1.095259999999999984e-01 -3.148600000000000010e-02 -4.126830000000000220e-01 -8.531999999999999307e-02 1.772479999999999889e-01 -4.850033999999999956e+00 7.082880000000000287e-01 -1.085420999999999969e+00 1.865239999999999954e-01 -2.201210000000000111e-01 -3.086599999999999899e-01 -2.225769999999999971e-01 -5.338999999999999996e-02 -5.035699999999999621e-01 -1.252780000000000005e-01 -3.433809999999999918e-01 1.723074999999999912e+00 -4.406570000000000209e-01 7.114700000000000191e-02 -5.617199999999999971e-02 -5.474750000000000449e-01 1.027819999999999984e-01 6.914160000000000306e-01 4.082529999999999770e-01 2.394050000000000067e-01 -1.390627999999999975e+00 -8.638379999999999947e-01 7.135029999999999983e-01 -2.151210000000000067e-01 -9.706820000000000448e-01 -3.953329999999999900e-01 8.204500000000000681e-02 1.717883999999999967e+00 -5.025460000000000482e-01 -9.135159999999999947e-01 6.399499999999999633e-02 -1.812709999999999877e-01 2.050359999999999960e-01 1.340040000000000120e-01 4.431000000000000216e-02 -7.964369999999999505e-01 1.549492000000000091e+00 2.835090000000000110e-01 2.090892000000000195e+00 -4.313150000000000039e-01 -8.460900000000000365e-02 1.303093000000000057e+00 -1.244262999999999897e+00 -3.221890000000000032e-01 1.287770000000000026e-01 4.631199999999999900e-02 -6.247089999999999588e-01 -1.728240000000000054e-01 -7.938840000000000341e-01 4.060030000000000028e-01 2.007269999999999888e-01 1.936139999999999972e+00
1.982520000000000115e-01 3.455799999999999983e-01 1.038690000000000030e-01 1.858499999999999874e-01 1.023799999999999988e-01 1.051060000000000050e-01 -8.317499999999999893e-02 8.331520000000000037e-01 -5.130740000000000300e-01 5.839099999999999846e-02 -6.420890000000000208e-01 8.187300000000000133e-02 -8.217700000000000005e-02 -2.544569999999999887e-01 9.622039999999999482e-01 9.624199999999999422e-02 -3.578919999999999879e-01 -3.099210000000000020e-01 -4.328725000000000378e+00 2.248301999999999801e+00 1.618508000000000058e+00 2.173889999999999989e-01 2.628739999999999966e-01 2.879869999999999930e-01 -4.006599999999999745e-02 -1.170250000000000040e-01 -7.470090000000000341e-01 -1.780599999999999891e-02 3.765769999999999951e-01 1.970800000000000052e-01 -3.856799999999999812e-02 2.991480000000000250e-01 1.925640000000000129e-01 -3.794000000000000150e-02 6.553940000000000321e-01 -2.843140000000000112e-01 -1.183020000000000044e-01 -5.089087000000000138e+00 1.431664000000000048e+00 -5.463900000000000007e-02 1.053100000000000008e-01 7.028370000000000450e-01 -1.658239999999999992e-01 -5.932469999999999688e-01 -4.065130000000000132e-01 4.180341999999999558e+00 2.394181999999999810e+00 1.765079000000000065e+00 -1.327490000000000059e-01 3.345890000000000253e-01 2.148899999999999977e-01 -6.284800000000000109e-02 -2.727870000000000017e-01 -5.223527999999999949e+00 1.122951000000000032e+00 -9.359049999999999869e-01 -1.255600000000000049e-01 -1.116400000000000031e-02 -5.702300000000000146e-01 -2.878310000000000035e-01 1.333999999999999908e-01 -2.685409999999999742e-01 1.565340000000000065e-01 -5.282320000000000348e-01 1.810286999999999979e+00 -3.128330000000000277e-01 1.275610000000000077e-01 -5.522200000000000025e-02 -3.159790000000000099e-01 1.183639999999999970e-01 1.083419999999999939e-01 -3.263900000000000134e-02 -5.394899999999999696e-02 -7.532729999999999704e-01 -4.780369999999999897e-01 1.150036999999999976e+00 -4.926490000000000036e-01 -8.760949999999999571e-01 -5.619199999999999751e-01 3.183900000000000063e-01 1.786456000000000044e+00 -1.212630000000000097e+00 -1.146903999999999924e+00 -1.874550000000000105e-01 -9.384900000000000186e-02 -1.981150000000000133e-01 -1.047830000000000011e-01 -8.080000000000000376e-03 -3.169609999999999927e-01 1.228625000000000078e+00 7.007120000000000015e-01 1.145901000000000058e+00 4.358139999999999792e-01 -3.230000000000000232e-02 1.073763999999999941e+00 -6.563269999999999937e-01 -1.411439999999999917e-01 -4.931969999999999965e-01 -3.760319999999999774e-01 -1.149318999999999980e+00 -5.421899999999999498e-01 -9.791069999999999496e-01 6.659140000000000059e-01 6.855980000000000407e-01 9.459490000000000398e-01
-3.166939999999999755e-01 4.397199999999999998e-01 4.930519999999999903e-01 7.027000000000000260e-03 1.137549999999999950e-01 5.346900000000000264e-02 1.085331000000000046e+00 -7.629169999999999563e-01 4.000630000000000019e-01 3.062000000000000052e-03 -7.310229999999999784e-01 2.950160000000000005e-01 8.390450000000000408e-01 1.262032000000000043e+00 -1.385132000000000030e+00 6.228899999999999715e-02 7.005900000000000460e-01 9.084950000000000525e-01 -1.834859000000000018e+00 8.963020000000000431e-01 -3.247128000000000014e+00 -2.301370000000000082e-01 3.754219999999999779e-01 -1.596635999999999944e+00 5.511200000000000543e-01 -6.999729999999999563e-01 4.407070000000000154e-01 7.419240000000000279e-01 2.637256999999999962e+00 -3.395239999999999925e-01 -8.146390000000000020e-01 -1.183033999999999919e+00 -1.167181000000000024e+00 -6.231750000000000345e-01 -8.857979999999999743e-01 1.185022999999999938e+00 -6.759429999999999605e-01 2.341129999999999878e-01 -4.674000000000000203e-03 4.973409999999999775e-01 -7.245169999999999666e-01 -1.429513000000000034e+00 1.527009000000000061e+00 -1.332659999999999956e-01 2.951650000000000107e-01 2.171579999999999899e-01 -1.416006000000000098e+00 -8.486169999999999547e-01 6.647659999999999680e-01 2.657530000000000170e-01 1.755749999999999922e+00 -2.880280000000000062e-01 -4.765079999999999871e-01 1.007147999999999932e+00 -3.034350000000000103e-01 -7.886069999999999469e-01 8.593480000000000008e-01 4.616480000000000028e-01 -3.266700000000000159e-01 -9.178269999999999484e-01 5.750070000000000459e-01 -5.188719999999999999e-01 2.837100000000000177e-01 5.234980000000000189e-01 -2.947159999999999780e-01 -3.872129999999999739e-01 -2.332319999999999949e-01 1.318696000000000090e+00 -9.038100000000000300e-02 -1.345419999999999949e-01 6.670000000000000373e-01 1.093630000000000019e-01 1.748814000000000091e+00 -7.547540000000000360e-01 2.452320000000000055e-01 -1.769052000000000069e+00 -1.602473000000000036e+00 1.204341000000000106e+00 1.550642999999999994e+00 -1.496283999999999947e+00 1.405396000000000090e+00 1.415723999999999982e+00 1.914576000000000056e+00 3.092829999999999746e-01 2.284289999999999932e-01 -1.629579999999999917e-01 -1.432962000000000069e+00 -7.577709999999999724e-01 3.069951999999999792e+00 -1.485690000000000066e-01 -1.282256999999999980e+00 -7.035040000000000182e-01 -6.957889999999999908e-01 -8.331979999999999942e-01 4.841690000000000160e-01 1.823185000000000056e+00 -1.318931000000000076e+00 -1.020449999999999968e-01 -1.101013000000000019e+00 8.167029999999999568e-01 -1.016480999999999968e+00 1.373186000000000018e+00 -2.100648000000000071e+00 4.010719999999999841e-01 3.452259999999999773e-01
2.671819999999999751e-01 -8.087600000000000344e-01 -2.501800000000000135e-01 -3.928099999999999925e-01 -1.082983999999999947e+00 -9.529809999999999670e-01 -2.945900000000000185e-01 2.535319999999999796e-01 -6.909340000000000481e-01 -1.212189999999999934e-01 1.046701000000000104e+00 9.015309999999999713e-01 -5.627309999999999812e-01 5.335569999999999480e-01 -1.011520999999999892e+00 -2.562499999999999778e-01 -2.002073999999999909e+00 -3.191620000000000013e-01 -3.536113999999999979e+00 5.994300000000000184e-01 1.128954999999999931e+00 -1.179790000000000005e-01 9.848970000000000224e-01 -1.887347000000000108e+00 -1.931889999999999996e-01 5.104530000000000456e-01 3.083500000000000130e-02 -2.008745999999999921e+00 6.109799999999999676e-01 -1.365899999999999892e-01 4.022419999999999884e-01 1.162984999999999935e+00 1.336362000000000050e+00 -5.505689999999999751e-01 2.114524999999999988e+00 7.360970000000000013e-01 -2.473970000000000058e-01 -4.348132999999999804e+00 -4.666770000000000085e-01 1.931521000000000043e+00 4.391749999999999821e-01 1.356195999999999957e+00 -1.412499999999999867e-01 -1.764472999999999958e+00 -1.580033000000000021e+00 3.983960999999999864e+00 1.529654000000000069e+00 1.609620999999999968e+00 -6.449869999999999770e-01 7.593250000000000277e-01 1.066661000000000081e+00 -6.973200000000000232e-02 3.137769999999999726e-01 -4.561156999999999684e+00 1.276340999999999948e+00 -4.800209999999999755e-01 -3.266180000000000194e-01 1.386845000000000105e+00 -5.791300000000000336e-01 -2.851360000000000006e-01 1.994051000000000018e+00 5.611639999999999961e-01 3.616510000000000002e-01 9.709800000000000375e-02 2.672518000000000171e+00 1.549350999999999923e+00 1.293414000000000064e+00 3.292410000000000059e-01 8.202300000000000146e-01 -3.349200000000000094e-02 -2.081689999999999929e-01 -1.513749000000000011e+00 1.185578999999999938e+00 -2.930804000000000187e+00 -1.646951999999999972e+00 2.403080999999999801e+00 -1.161408999999999914e+00 9.211150000000000171e-01 -3.800100000000000006e-02 -5.734970000000000345e-01 2.299049999999999816e+00 -1.207943999999999907e+00 1.410579999999999945e+00 -1.170083999999999902e+00 -1.134023999999999921e+00 -4.653899999999999704e-02 7.972999999999999185e-03 -1.575423999999999936e+00 6.248200000000000420e-01 2.611569999999999725e-01 -9.922619999999999774e-01 3.053319999999999923e-01 1.493750000000000078e-01 -8.586599999999999788e-01 2.000598000000000098e+00 2.221713999999999967e+00 1.277443000000000106e+00 -6.243779999999999886e-01 -1.132617999999999903e+00 -2.189578000000000024e+00 -2.212099999999999955e+00 3.393669999999999742e-01 -3.318110000000000226e-01 5.922600000000000087e-02 8.345000000000000195e-01
-2.016449999999999909e-01 3.681209999999999760e-01 -1.169069999999999970e-01 -1.049699999999999939e-02 5.022879999999999567e-01 5.271500000000000075e-01 -2.055150000000000032e-01 5.275570000000000537e-01 -1.504659999999999886e-01 -8.560199999999999754e-02 -2.902700000000000072e-02 2.370950000000000002e-01 -2.612200000000000077e-01 1.270300000000000075e-02 5.966970000000000329e-01 3.009569999999999745e-01 -5.100890000000000146e-01 -3.169060000000000210e-01 -4.260609999999999786e+00 1.770585999999999993e+00 1.300254999999999939e+00 -3.084470000000000267e-01 4.300600000000000256e-02 5.991499999999999604e-01 4.279600000000000071e-02 2.236019999999999952e-01 -4.134499999999999981e-02 2.133190000000000086e-01 5.884799999999999753e-02 7.553200000000000192e-02 -9.459700000000000053e-02 -2.485630000000000062e-01 -1.532940000000000136e-01 3.660919999999999730e-01 6.621270000000000211e-01 -1.811159999999999992e-01 1.196020000000000000e-01 -4.845163999999999582e+00 1.138697999999999988e+00 3.972899999999999765e-01 -9.380600000000000049e-02 7.320539999999999825e-01 -4.206520000000000259e-01 -6.373739999999999961e-01 -4.208029999999999826e-01 4.136136999999999730e+00 1.933335999999999943e+00 1.431902999999999926e+00 2.900209999999999733e-01 1.550759999999999916e-01 1.646710000000000118e-01 1.463210000000000066e-01 -4.880820000000000158e-01 -4.972735000000000127e+00 9.381800000000000139e-01 -6.074310000000000542e-01 -7.920190000000000285e-01 2.488200000000000134e-02 2.841710000000000069e-01 1.475700000000000067e-01 -1.276519999999999877e-01 -2.293570000000000053e-01 -2.529699999999999727e-01 -4.024349999999999872e-01 1.295412999999999926e+00 -5.528370000000000228e-01 -2.099310000000000065e-01 -2.834650000000000225e-01 -1.582010000000000083e-01 2.064650000000000096e-01 -2.470500000000000126e-02 -3.607099999999999890e-02 3.938300000000000134e-02 -2.217230000000000034e-01 -3.144210000000000060e-01 1.034847999999999990e+00 -9.977470000000000505e-01 -4.262230000000000185e-01 -4.928230000000000111e-01 5.000999999999999890e-02 1.256888000000000005e+00 -9.598020000000000440e-01 -7.430499999999999883e-01 -5.745810000000000084e-01 1.566190000000000082e-01 6.028700000000000031e-02 -1.198929999999999996e-01 -1.423999999999999988e-01 2.035399999999999987e-01 1.165858999999999979e+00 5.895430000000000392e-01 9.727799999999999780e-01 -3.204179999999999806e-01 -9.907000000000000528e-02 1.199402000000000079e+00 -1.096000000000000030e-01 -2.218769999999999909e-01 2.944289999999999963e-01 2.423649999999999971e-01 -9.910520000000000440e-01 -7.400999999999999801e-01 -7.110720000000000374e-01 4.933710000000000040e-01 8.240200000000000302e-02 1.105992000000000086e+00
1.120590000000000058e-01 2.168937999999999811e+00 2.181770000000000098e-01 1.196674000000000015e+00 3.389409999999999923e-01 -2.207599999999999840e-02 -1.014361000000000068e+00 2.239764000000000088e+00 -7.910589999999999566e-01 3.112429999999999919e-01 5.564400000000000457e-01 -1.354203999999999963e+00 2.694929999999999826e-01 -1.154379999999999962e+00 1.509409000000000001e+00 -6.145530000000000159e-01 6.431689999999999907e-01 6.529500000000000581e-02 -4.418352999999999753e+00 1.296909000000000090e+00 1.473951999999999929e+00 1.278742999999999963e+00 7.278620000000000090e-01 5.383019999999999472e-01 -1.077766999999999920e+00 -9.804159999999999542e-01 2.568790000000000240e-01 -2.010949000000000098e+00 -1.497595999999999927e+00 1.018334000000000072e+00 -5.707950000000000523e-01 -7.746180000000000287e-01 -2.417769999999999919e-01 -3.488919999999999799e-01 2.617300000000000182e-01 -5.953810000000000491e-01 3.354739999999999944e-01 -4.665079999999999671e+00 1.956350000000000033e+00 -2.412030000000000007e-01 -7.591999999999999860e-01 -2.771120000000000250e-01 -1.491168000000000049e+00 -1.450228000000000073e+00 -9.036840000000000428e-01 4.226384000000000363e+00 1.516572999999999949e+00 1.464407999999999932e+00 8.957960000000000367e-01 1.421429000000000054e+00 -1.061776999999999971e+00 -8.439499999999999780e-02 -4.298179999999999779e-01 -4.876107000000000191e+00 1.222051999999999916e+00 -2.295144000000000073e+00 -1.349215000000000053e+00 9.902609999999999468e-01 9.425100000000000144e-02 1.168058000000000041e+00 -1.629079999999999973e-01 -3.604249999999999954e-01 5.109320000000000528e-01 -8.548620000000000108e-01 1.824589999999999934e+00 -9.720180000000000486e-01 1.563412000000000024e+00 -3.116360000000000241e-01 -4.274009999999999754e-01 -5.232729999999999881e-01 -9.639499999999999458e-02 -9.905730000000000368e-01 5.348530000000000229e-01 4.258359999999999923e-01 -3.304200000000000192e-02 -1.613278999999999908e+00 -2.452399000000000218e+00 -1.322578999999999949e+00 -5.372400000000000508e-01 5.145760000000000334e-01 2.450209000000000081e+00 7.181969999999999743e-01 -1.123299999999999965e+00 -1.168654999999999999e+00 -8.959770000000000234e-01 -2.834199999999999914e-02 4.588929999999999954e-01 1.317558999999999925e+00 -9.106070000000000553e-01 2.089501999999999970e+00 2.186160000000000048e-01 2.625312000000000090e+00 -1.531409999999999993e-01 -1.961916999999999911e+00 2.017004000000000019e+00 -1.635072999999999999e+00 1.760380999999999974e+00 8.999639999999999862e-01 1.364835000000000020e+00 -4.538289999999999824e-01 5.682700000000000529e-01 3.825819999999999776e-01 1.924523999999999901e+00 -8.519769999999999843e-01 1.248758999999999952e+00
1.473611000000000004e+00 -3.350020000000000220e-01 -1.679230000000000000e+00 -3.607300000000000090e-02 5.429999999999999931e-03 -7.742160000000000153e-01 9.431800000000000184e-01 1.005279000000000034e+00 -1.099539999999999962e-01 9.535000000000000420e-02 -1.427450000000000108e+00 -1.454023999999999983e+00 2.369056000000000051e+00 1.872027000000000108e+00 -4.358730000000000104e-01 1.583007999999999971e+00 -1.958989999999999898e-01 8.482210000000000027e-01 1.886274999999999924e+00 2.025968999999999909e+00 1.721594999999999986e+00 -1.733580000000000121e-01 8.254679999999999795e-01 2.420599999999999835e-02 -1.316923999999999984e+00 9.602079999999999504e-01 -8.338109999999999689e-01 4.174889999999999990e-01 2.703872000000000053e+00 1.205289000000000055e+00 -1.426590000000000080e-01 -1.960850999999999900e+00 -2.666609999999999814e-01 -9.485780000000000323e-01 1.941500000000000170e-02 -2.379077000000000108e+00 -2.574710000000000054e-01 -1.063023999999999969e+00 -6.492019999999999458e-01 -1.567149999999999932e-01 5.496600000000000374e-01 -1.382390000000000008e+00 -1.397140000000000049e+00 7.944390000000000063e-01 1.432280999999999915e+00 9.442399999999999405e-02 -1.909475999999999951e+00 -4.669539999999999802e-01 2.234349999999999947e-01 6.290829999999999478e-01 2.122684000000000015e+00 -4.475649999999999906e-01 2.623819000000000123e+00 -1.406100000000000128e-01 -2.522510000000000030e+00 1.229754000000000014e+00 8.635000000000000314e-03 -3.193679999999999852e-01 -1.471969000000000083e+00 -4.036219999999999808e-01 3.749970000000000248e-01 9.355189999999999895e-01 2.604893999999999821e+00 1.955359999999999876e-01 -3.827000000000000107e-03 -1.485036999999999940e+00 -1.496212000000000097e+00 -5.368089999999999806e-01 1.508418999999999954e+00 -1.244172999999999973e+00 -1.191273999999999944e+00 -3.217869999999999897e-01 -2.683289999999999953e+00 -4.140348999999999613e+00 -3.583317999999999781e+00 -1.088317999999999897e+00 -4.699710000000000276e-01 1.185114999999999919e+00 2.240723000000000020e+00 -2.854124000000000105e+00 -5.938440000000000385e-01 1.760051000000000032e+00 1.555860000000000021e+00 2.224848000000000159e+00 1.789400000000000018e-02 3.955000000000000182e-03 -2.377777000000000029e+00 -2.202790000000000026e-01 -4.741830000000000211e-01 6.822679999999999856e-01 -7.916189999999999616e-01 2.050828999999999791e+00 -8.716180000000000039e-01 -4.146029999999999993e-01 2.540845000000000020e+00 1.527682999999999902e+00 8.331250000000000044e-01 -8.681990000000000540e-01 -2.379330000000000056e-01 1.326756000000000046e+00 -1.380441000000000029e+00 7.334969999999999546e-01 -1.780539999999999901e-01 -2.048582000000000125e+00 2.617300999999999878e+00
-1.440001000000000086e+00 6.003819999999999713e-01 1.701239999999999974e-01 -1.829689999999999928e-01 4.422940000000000205e-01 -1.054465999999999903e+00 -6.956550000000000233e-01 9.124419999999999753e-01 -2.855690000000000173e-01 1.206301999999999985e+00 -3.943510000000000071e-01 2.242399999999999949e-02 9.464100000000000290e-02 7.897910000000000208e-01 1.144622000000000028e+00 -8.790270000000000028e-01 -5.278530000000000166e-01 -1.583514000000000088e+00 -3.911906000000000105e+00 2.492046000000000205e+00 1.626101999999999936e+00 3.266220000000000234e-01 -6.019440000000000346e-01 6.612679999999999669e-01 1.079169000000000045e+00 -4.117549999999999821e-01 -1.460085000000000077e+00 -5.694789999999999575e-01 -1.627230000000000065e-01 -2.953020000000000089e-01 4.670909999999999784e-01 -4.870470000000000077e-01 -1.845873000000000097e+00 1.141601000000000088e+00 1.153659999999999963e-01 5.683700000000000419e-01 -5.208509999999999529e-01 -4.593706000000000067e+00 2.149218999999999991e+00 7.738909999999999956e-01 -2.540299999999999780e-01 4.312929999999999819e-01 -1.810442000000000107e+00 -8.113930000000000309e-01 -1.559000000000000108e-01 3.548941000000000123e+00 2.849034000000000066e+00 2.241305000000000103e+00 -7.228050000000000308e-01 -7.703980000000000272e-01 -1.750207999999999986e+00 -1.203953999999999969e+00 1.348703999999999903e+00 -4.676684999999999981e+00 1.913316999999999934e+00 -1.495714999999999906e+00 1.732207999999999970e+00 -3.450540000000000274e-01 8.328269999999999840e-01 1.490526000000000018e+00 -1.270402999999999949e+00 -1.346559999999999979e-01 -5.552740000000000453e-01 -2.403810000000000113e-01 1.918373000000000106e+00 -2.289466000000000001e+00 -4.340740000000000154e-01 -4.634610000000000118e-01 -4.856389999999999874e-01 1.308642000000000083e+00 -1.370152999999999954e+00 -9.726390000000000313e-01 -4.344499999999999751e-02 -2.624312999999999896e+00 -3.599990000000000134e-01 1.130953000000000097e+00 -7.893550000000000288e-01 -1.474315000000000042e+00 1.452784999999999993e+00 -7.816100000000000270e-01 3.540265999999999913e+00 -9.911000000000000365e-02 -8.878040000000000376e-01 -7.487359999999999571e-01 2.937069999999999959e-01 4.013329999999999953e-01 7.745769999999999600e-01 5.530420000000000336e-01 -5.080569999999999808e-01 2.181502000000000052e+00 -5.060139999999999638e-01 2.767454999999999998e+00 -2.082829999999999959e-01 -1.198690000000000033e-01 2.472663999999999973e+00 -1.012618000000000018e+00 -1.533120000000000038e-01 1.367641000000000107e+00 -3.042800000000000019e-02 -4.641279999999999850e-01 -1.275341000000000058e+00 -3.971089999999999898e-01 3.221760000000000179e-01 3.531200000000000311e-02 2.908303999999999778e+00
1.864211999999999980e+00 1.324073000000000055e+00 -9.904960000000000431e-01 3.816069999999999740e-01 -3.834250000000000158e-01 5.874209999999999710e-01 3.709419999999999940e-01 1.145497999999999905e+00 -1.172841000000000022e+00 -1.603670000000000095e-01 -1.823749000000000065e+00 6.679690000000000349e-01 -7.254319999999999657e-01 -4.730940000000000145e-01 1.351499999999999924e-02 5.219730000000000203e-01 -5.096850000000000547e-01 5.110400000000000498e-01 -2.954002000000000017e+00 2.468510999999999900e+00 2.243333999999999939e+00 3.981233000000000022e+00 2.121996999999999911e+00 3.107044000000000139e+00 -3.549299999999999677e-02 1.985409999999999953e-01 -1.189828000000000108e+00 3.061749999999999750e-01 -8.327700000000000102e-01 1.358678000000000052e+00 -5.639659999999999673e-01 6.536599999999999355e-02 -2.680730000000000057e-01 -3.383740000000000081e-01 3.988090000000000246e-01 -3.899170000000000136e-01 4.901849999999999818e-01 -4.669814999999999827e+00 1.252386999999999917e+00 2.608719999999999928e-01 1.760319999999999940e-01 1.097639999999999949e+00 1.419289999999999996e-01 -2.033844999999999903e+00 -1.913953999999999933e+00 4.092476999999999698e+00 -4.489279999999999937e-01 2.269193000000000016e+00 -8.917399999999999771e-01 -4.845900000000000207e-02 -1.502590000000000092e+00 4.687669999999999892e-01 -5.860619999999999719e-01 -4.749346000000000068e+00 1.553450000000000109e-01 -1.768327999999999900e+00 9.392859999999999543e-01 -7.592500000000000637e-02 2.661060000000000092e-01 -6.129809999999999981e-01 1.137549999999999950e-01 6.348009999999999486e-01 -9.284320000000000350e-01 -5.528610000000000468e-01 7.291900000000000048e-01 -1.147974999999999968e+00 -2.268979999999999886e-01 2.901650000000000063e-01 1.380187999999999970e+00 -1.047196999999999933e+00 -5.049179999999999779e-01 -1.586421999999999999e+00 -4.636440000000000006e-01 6.840319999999999734e-01 -2.159453000000000067e+00 -2.904141999999999779e+00 -3.418972000000000122e+00 -1.880122999999999989e+00 -8.499999999999999778e-01 -5.214509999999999978e-01 1.421372000000000080e+00 -7.759629999999999583e-01 2.198155999999999999e+00 -8.687529999999999974e-01 6.914099999999999413e-02 9.080730000000000190e-01 8.214609999999999967e-01 2.608320000000000083e-01 2.966860000000000053e-01 3.940759999999999819e-01 -1.280000000000000061e-02 3.193401000000000156e+00 -4.153339999999999810e-01 -6.206040000000000445e-01 3.577919999999999989e-01 8.120899999999999785e-01 7.232700000000000240e-02 7.549010000000000442e-01 -4.232150000000000079e-01 -4.487769999999999815e-01 -7.219999999999999751e-01 2.365009999999999890e-01 9.641500000000000070e-02 5.333700000000000108e-01 3.086539000000000144e+00
5.927000000000000324e-02 -7.712510000000000199e-01 1.799590000000000078e-01 5.108209999999999695e-01 -8.488590000000000302e-01 -4.336289999999999867e-01 -2.782769999999999966e-01 6.433849999999999847e-01 7.628660000000000441e-01 -5.689999999999999745e-03 9.166239999999999943e-01 -4.651520000000000099e-01 -7.410719999999999530e-01 9.816709999999999603e-01 2.013699999999999934e-01 2.888680000000000136e-01 -1.209699999999999942e-01 -2.052370000000000028e-01 -4.297887000000000235e+00 2.408396999999999899e+00 1.554295999999999900e+00 -2.782439999999999913e-01 1.408369999999999900e-01 -7.194519999999999804e-01 2.143859999999999932e-01 -8.837799999999999823e-02 1.016877999999999949e+00 2.080210000000000115e-01 -1.068232000000000070e+00 9.930830000000000490e-01 -7.036069999999999824e-01 -1.418730000000000047e+00 -9.654260000000000064e-01 1.788490000000000080e-01 6.766510000000000025e-01 8.870580000000000132e-01 3.028850000000000153e-01 -4.171094000000000079e+00 1.993848000000000065e+00 7.240959999999999619e-01 1.008199000000000067e+00 4.474079999999999724e-01 -6.995200000000000029e-02 -4.459799999999999875e-02 -1.734989999999999866e-01 3.828276999999999930e+00 3.006841999999999793e+00 1.923373999999999917e+00 2.285250000000000059e-01 4.096469999999999834e-01 -1.367629999999999901e+00 3.395200000000000301e-02 4.613189999999999791e-01 -4.690119000000000149e+00 3.217260000000000120e-01 -5.228129999999999722e-01 -2.346489999999999965e-01 4.959950000000000192e-01 4.174800000000000039e-02 2.953489999999999727e-01 -3.012619999999999743e-01 2.823780000000000179e-01 -2.195830000000000004e-01 2.397749999999999881e-01 2.077382000000000062e+00 -1.512351999999999919e+00 1.969819999999999904e-01 3.452199999999999713e-02 4.537559999999999927e-01 5.642400000000000193e-02 2.785070000000000046e-01 -4.495299999999999990e-02 1.572369999999999879e-01 -1.668978000000000073e+00 -1.106753000000000098e+00 2.387259999999999938e-01 -6.634229999999999849e-01 -6.764699999999999880e-02 1.693250000000000033e-01 -1.007346000000000075e+00 2.200423999999999936e+00 -3.352539999999999965e-01 -7.623980000000000201e-01 -2.515249999999999986e-01 -2.824429999999999996e-01 -5.958449999999999580e-01 -4.837159999999999793e-01 1.343479999999999952e-01 -2.222359999999999891e-01 1.392655999999999894e+00 -5.573129999999999473e-01 7.199999999999999734e-01 -1.692701999999999929e+00 -8.444999999999999729e-02 1.135896999999999935e+00 -6.597469999999999724e-01 1.574329999999999896e-01 2.024650000000000061e-01 7.803699999999999526e-02 -3.376140000000000252e-01 -2.394060000000000077e-01 -5.254480000000000262e-01 -4.728559999999999985e-01 -1.211913000000000018e+00 1.438852999999999938e+00