1.440979999999999928e+00 1.040759999999999907e+00 7.360999999999999766e-01 3.115759999999999863e+00 2.045760000000000023e+00 3.266919999999999824e+00 4.625619999999999621e+00 2.565339999999999954e+00 5.905809999999999782e+00 3.109980000000000189e+00 3.762980000000000214e+00 6.380099999999999660e-01 4.942429999999999879e+00 4.387660000000000338e+00 3.290150000000000130e+00 -4.048999999999999821e-02 5.386370000000000324e+00 5.780230000000000423e+00 4.502670000000000172e+00 6.418020000000000280e+00 8.764300000000000423e-01 -8.236999999999999877e-02 7.223290000000000433e+00 3.438740000000000130e+00 1.334119999999999973e+00 8.306300000000000239e+00 5.858150000000000190e+00 4.647409999999999819e+00 1.087229999999999919e+00 6.004300000000000193e-01 -5.066999999999999976e-02 1.860640000000000072e+00 3.299819999999999975e+00 1.419229999999999992e+00 2.775469999999999882e+00 6.008009999999999629e+00 -4.080999999999999905e-02 3.516539999999999999e+00 8.394200000000000550e-01 1.804939999999999989e+00 4.674150000000000027e+00 3.421089999999999964e+00 2.917479999999999851e+00 5.310550000000000104e+00 5.874979999999999869e+00 1.369010000000000060e+00 6.619919999999999582e+00 9.197800000000000420e-01 3.218729999999999869e+00 7.093670000000000364e+00 3.445450000000000124e+00 -1.758369999999999989e+00 8.479300000000000281e+00 5.802100000000000257e+00 4.571430000000000327e+00 8.324149999999999494e+00 9.465999999999999415e-02 1.763050000000000006e+00 9.991600000000000481e-01 2.662970000000000059e+00 1.450029999999999930e+00 1.019450999999999929e+01 5.239060000000000272e+00 1.421049999999999924e+00 2.728969999999999896e+00 2.998999999999999930e-02 3.382880000000000109e+00 3.791770000000000085e+00 2.581630000000000091e+00 4.621170000000000222e+00 4.587869999999999671e+00 5.100349999999999717e+00 2.958870000000000111e+00 5.779690000000000438e+00 1.509099999999999886e-01 -1.550610000000000044e+00 6.207950000000000301e+00 2.625719999999999832e+00 -1.358300000000000063e-01 7.129400000000000404e+00 5.353240000000000443e+00 2.917079999999999895e+00 6.657000000000000417e-02 1.638699999999999879e-01 4.670119999999999827e+00 1.480960000000000054e+00 2.641939999999999955e+00 -4.640999999999999986e-02 1.948600000000000110e+00 5.174210000000000420e+00 4.663870000000000182e+00 2.841219999999999857e+00 9.090000000000000857e-03 1.620999999999999941e-01 3.687819999999999876e+00 2.604400000000000048e+00 1.399429999999999952e+00 4.389829999999999899e+00 5.321729999999999627e+00 -2.321199999999999930e-01 5.455059999999999576e+00 1.348600000000000076e-01 1.480580000000000007e+00 6.499349999999999739e+00 2.793410000000000171e+00 2.998660000000000103e+00 7.187969999999999970e+00 5.390329999999999622e+00 -1.821280000000000010e+00 8.315910000000000579e+00 3.867630000000000123e+00
1.568049999999999944e+00 8.976499999999999480e-01 6.393299999999999539e-01 3.285320000000000018e+00 1.793239999999999945e+00 3.367780000000000218e+00 4.883169999999999789e+00 2.889949999999999797e+00 5.899149999999999672e+00 3.166749999999999954e+00 3.525290000000000035e+00 8.544599999999999973e-01 4.896480000000000388e+00 4.592740000000000045e+00 3.297439999999999927e+00 -7.784000000000000641e-02 5.552150000000000141e+00 5.959509999999999863e+00 4.539450000000000429e+00 6.509839999999999627e+00 6.716299999999999493e-01 -3.422899999999999832e-01 7.540919999999999845e+00 3.365510000000000002e+00 1.469659999999999966e+00 8.470150000000000290e+00 6.028760000000000119e+00 4.836459999999999759e+00 1.016650000000000054e+00 6.599599999999999911e-01 8.869999999999999413e-03 1.788810000000000011e+00 3.351379999999999804e+00 1.708579999999999988e+00 2.957840000000000025e+00 5.891740000000000421e+00 1.005899999999999989e-01 3.830569999999999808e+00 6.362600000000000477e-01 1.710090000000000110e+00 4.614830000000000432e+00 3.067590000000000039e+00 3.268600000000000172e+00 5.634780000000000122e+00 6.000200000000000422e+00 1.176900000000000057e+00 6.588879999999999626e+00 9.263400000000000523e-01 3.199570000000000025e+00 7.552080000000000126e+00 3.313899999999999846e+00 -1.732969999999999899e+00 8.418889999999999318e+00 5.869170000000000442e+00 4.588440000000000296e+00 8.280319999999999681e+00 3.391000000000000264e-02 1.721160000000000023e+00 9.412599999999999856e-01 2.486800000000000122e+00 1.469659999999999966e+00 1.020207000000000086e+01 5.323719999999999786e+00 -1.046000000000000055e-02 5.389050000000000118e+00 7.773380000000000400e+00 3.348040000000000127e+00 3.542380000000000084e+00 2.775819999999999954e+00 4.799170000000000158e+00 4.702530000000000321e+00 5.246179999999999843e+00 2.064729999999999954e+00 5.021149999999999558e+00 9.699799999999999534e-01 4.698249999999999815e+00 6.305880000000000152e+00 2.476840000000000153e+00 1.065699999999999981e-01 7.331970000000000098e+00 5.489819999999999922e+00 1.447549999999999892e+00 8.285750000000000171e+00 1.005999999999999950e-02 4.775629999999999598e+00 9.929099999999999593e-01 2.484109999999999818e+00 4.870000000000000023e-02 2.190859999999999808e+00 5.359099999999999753e+00 4.870750000000000135e+00 2.852149999999999963e+00 8.151999999999999524e-02 -2.225999999999999854e-02 3.697709999999999830e+00 2.616969999999999796e+00 1.608239999999999892e+00 4.843899999999999650e+00 5.164460000000000051e+00 -1.989530000000000021e+00 8.510920000000000485e+00 7.791500000000000092e+00 1.433419999999999916e+00 6.628049999999999997e+00 2.981279999999999930e+00 2.813940000000000108e+00 7.345410000000000217e+00 5.368789999999999729e+00 -1.798550000000000093e+00 8.350770000000000692e+00 4.065949999999999953e+00
1.417640000000000011e+00 7.680099999999999705e-01 7.063099999999999934e-01 3.176620000000000221e+00 1.723479999999999901e+00 3.209039999999999893e+00 4.636540000000000106e+00 2.634819999999999940e+00 5.700529999999999653e+00 3.047709999999999919e+00 3.493889999999999940e+00 6.499899999999999567e-01 4.914880000000000138e+00 4.325969999999999871e+00 3.265060000000000073e+00 7.761999999999999456e-02 5.099179999999999602e+00 5.818870000000000431e+00 4.544839999999999769e+00 6.088059999999999583e+00 5.878700000000000037e-01 -9.685000000000000553e-02 7.217170000000000307e+00 3.382340000000000124e+00 1.565879999999999939e+00 8.015140000000000597e+00 6.092150000000000176e+00 4.379780000000000229e+00 9.442399999999999682e-01 5.827400000000000357e-01 7.541000000000000481e-02 1.815379999999999994e+00 3.423700000000000188e+00 1.738930000000000087e+00 2.725490000000000190e+00 5.869040000000000035e+00 -6.619999999999999496e-02 3.387150000000000105e+00 7.840700000000000447e-01 1.561020000000000074e+00 4.505250000000000199e+00 3.202350000000000030e+00 3.137700000000000156e+00 5.287480000000000402e+00 5.908940000000000303e+00 1.303949999999999942e+00 6.323000000000000398e+00 8.161500000000000421e-01 3.228779999999999983e+00 7.096219999999999750e+00 3.432599999999999874e+00 -1.621380000000000043e+00 7.926569999999999894e+00 5.743949999999999889e+00 4.526799999999999713e+00 2.608000000000000096e+00 7.542580000000000062e+00 1.609690000000000065e+00 9.264599999999999502e-01 2.615689999999999849e+00 1.627739999999999965e+00 9.627739999999999299e+00 5.121699999999999697e+00 1.629089999999999927e+00 2.486520000000000064e+00 5.609000000000000097e-02 3.127520000000000078e+00 3.598549999999999915e+00 2.759059999999999846e+00 4.614519999999999733e+00 4.531869999999999621e+00 5.123669999999999725e+00 2.938060000000000116e+00 5.382760000000000211e+00 2.183400000000000063e-01 -1.329690000000000039e+00 6.006520000000000081e+00 2.455579999999999874e+00 -1.719400000000000095e-01 6.885430000000000383e+00 5.353790000000000049e+00 1.421389999999999931e+00 7.990569999999999951e+00 4.190000000000000148e-03 4.617729999999999890e+00 1.098810000000000064e+00 2.277690000000000214e+00 7.939999999999999142e-03 1.868929999999999980e+00 5.348189999999999777e+00 4.627889999999999837e+00 2.742360000000000131e+00 1.766999999999999960e-01 1.707700000000000051e-01 3.442759999999999820e+00 2.668400000000000105e+00 1.677780000000000049e+00 4.471059999999999590e+00 5.181969999999999743e+00 -5.167999999999999677e-02 5.308270000000000266e+00 3.919999999999999873e-03 1.584419999999999940e+00 6.261110000000000397e+00 2.567050000000000054e+00 2.845439999999999969e+00 7.049089999999999634e+00 5.431029999999999802e+00 -1.625140000000000029e+00 8.003370000000000317e+00 4.013840000000000074e+00
1.386370000000000102e+00 9.723399999999999821e-01 6.576400000000000023e-01 3.069999999999999840e+00 1.709289999999999976e+00 3.288679999999999826e+00 4.879609999999999559e+00 2.830280000000000129e+00 5.800900000000000389e+00 3.076340000000000074e+00 3.819760000000000044e+00 8.171199999999999575e-01 4.952840000000000131e+00 4.507649999999999935e+00 3.366969999999999796e+00 2.241799999999999904e-01 5.516960000000000086e+00 5.953739999999999810e+00 4.622830000000000439e+00 6.384170000000000122e+00 6.183400000000000007e-01 -3.255899999999999905e-01 7.443559999999999732e+00 3.328269999999999840e+00 1.501770000000000049e+00 8.330890000000000128e+00 6.020369999999999777e+00 4.642479999999999940e+00 7.985700000000000021e-01 6.835700000000000109e-01 -9.610000000000000486e-02 1.662409999999999943e+00 3.191469999999999807e+00 1.604600000000000026e+00 2.765449999999999964e+00 5.827679999999999971e+00 -7.821999999999999786e-02 3.680029999999999912e+00 8.909700000000000397e-01 1.644409999999999927e+00 4.444829999999999615e+00 3.295549999999999979e+00 3.242830000000000101e+00 5.511449999999999960e+00 5.928289999999999615e+00 1.502909999999999968e+00 6.471300000000000274e+00 6.882000000000000339e-01 2.983989999999999920e+00 7.404630000000000045e+00 3.493609999999999882e+00 -1.652190000000000047e+00 8.613759999999999195e+00 6.036179999999999879e+00 4.717459999999999987e+00 8.230270000000000863e+00 1.145999999999999970e-02 7.432999999999999330e-02 9.101219999999999644e+00 2.580299999999999816e+00 1.548899999999999944e+00 1.003353000000000073e+01 5.261580000000000368e+00 1.520590000000000108e+00 2.946730000000000071e+00 9.921000000000000651e-02 3.196309999999999985e+00 3.719269999999999854e+00 2.711009999999999920e+00 -1.475389999999999979e+00 4.680860000000000021e+00 5.347070000000000434e+00 3.070850000000000080e+00 5.603760000000000296e+00 2.043999999999999984e-02 -1.432250000000000023e+00 6.160160000000000302e+00 2.498330000000000162e+00 4.938000000000000028e-02 7.241410000000000124e+00 5.488940000000000374e+00 2.922330000000000094e+00 9.153000000000000025e-02 1.913400000000000101e-01 4.569209999999999994e+00 9.371000000000000441e-01 2.603759999999999852e+00 5.126000000000000001e-02 2.086019999999999985e+00 5.403480000000000061e+00 4.839430000000000121e+00 2.764260000000000161e+00 1.028199999999999947e-01 7.228999999999999315e-02 3.641719999999999846e+00 2.734589999999999854e+00 1.778210000000000068e+00 4.582910000000000039e+00 5.223499999999999588e+00 -2.821299999999999919e-01 5.477500000000000036e+00 4.218999999999999834e-02 1.535409999999999942e+00 6.378949999999999676e+00 2.698620000000000019e+00 2.950530000000000097e+00 7.237040000000000362e+00 5.373599999999999710e+00 -1.770259999999999945e+00 8.247289999999999566e+00 4.087360000000000326e+00
1.547960000000000003e+00 8.391499999999999515e-01 7.829800000000000093e-01 2.970089999999999897e+00 1.937400000000000011e+00 3.275760000000000005e+00 4.515150000000000219e+00 2.689700000000000202e+00 5.961590000000000167e+00 3.106910000000000061e+00 3.560090000000000199e+00 8.132500000000000284e-01 4.605730000000000324e+00 4.384450000000000180e+00 3.228549999999999809e+00 8.640000000000000457e-02 5.306060000000000443e+00 5.828999999999999737e+00 4.772269999999999790e+00 6.281869999999999621e+00 7.146799999999999820e-01 -4.748999999999999749e-02 7.186429999999999652e+00 3.425040000000000084e+00 1.655960000000000099e+00 8.068989999999999441e+00 5.854099999999999859e+00 4.625020000000000131e+00 1.018080000000000096e+00 6.611000000000000210e-01 -1.128799999999999942e-01 1.733030000000000070e+00 3.308129999999999793e+00 1.563960000000000017e+00 2.675940000000000207e+00 5.803160000000000096e+00 -1.634000000000000036e-02 3.661620000000000097e+00 6.748699999999999699e-01 1.325730000000000075e+00 4.466940000000000133e+00 3.236759999999999859e+00 3.079219999999999846e+00 5.292180000000000106e+00 5.865599999999999703e+00 1.657389999999999919e+00 6.374640000000000306e+00 6.702700000000000324e-01 3.128010000000000179e+00 6.939750000000000085e+00 3.275980000000000114e+00 -1.382810000000000095e+00 8.060090000000000643e+00 5.703520000000000145e+00 6.155000000000000249e+00 7.445000000000000229e-02 1.760200000000000098e-01 1.568429999999999991e+00 1.050259999999999971e+00 2.574939999999999785e+00 1.524370000000000003e+00 9.773649999999999949e+00 5.150599999999999845e+00 1.530729999999999924e+00 2.691230000000000011e+00 8.155999999999999361e-02 2.893520000000000092e+00 3.700309999999999988e+00 2.716450000000000031e+00 4.641000000000000014e+00 4.502629999999999910e+00 5.159600000000000186e+00 3.161000000000000032e+00 5.414959999999999773e+00 7.696000000000000063e-02 4.579740000000000144e+00 6.010309999999999597e+00 2.437320000000000153e+00 2.561499999999999888e-01 7.083050000000000068e+00 5.318760000000000154e+00 3.134840000000000071e+00 3.939000000000000140e-02 9.588000000000000689e-02 4.459950000000000081e+00 1.094309999999999894e+00 2.450009999999999799e+00 -1.141299999999999953e-01 2.021419999999999995e+00 5.364259999999999806e+00 4.639009999999999856e+00 2.797470000000000123e+00 1.489699999999999913e-01 -1.700299999999999867e-01 3.511109999999999953e+00 2.532680000000000042e+00 1.539560000000000040e+00 4.373590000000000089e+00 5.175799999999999734e+00 7.489999999999999436e-02 5.451290000000000191e+00 8.711000000000000687e-02 1.466259999999999897e+00 6.346409999999999663e+00 2.668210000000000193e+00 2.998369999999999980e+00 6.978030000000000399e+00 5.223939999999999806e+00 -1.732750000000000012e+00 8.050979999999999137e+00 3.870289999999999786e+00
1.575749999999999984e+00 7.769500000000000295e-01 6.761899999999999578e-01 3.242389999999999883e+00 1.747509999999999897e+00 3.156080000000000219e+00 4.554070000000000285e+00 2.664190000000000058e+00 5.748280000000000278e+00 3.086790000000000145e+00 3.567699999999999871e+00 6.383900000000000130e-01 4.633499999999999730e+00 4.322899999999999743e+00 3.151559999999999917e+00 8.536000000000000532e-02 5.193249999999999922e+00 5.720570000000000377e+00 4.532440000000000246e+00 6.172620000000000218e+00 6.189900000000000402e-01 -3.068100000000000271e-01 7.249799999999999578e+00 3.289979999999999905e+00 1.639580000000000037e+00 8.166570000000000107e+00 5.697530000000000427e+00 4.615610000000000213e+00 9.511100000000000110e-01 5.181499999999999995e-01 1.660000000000000017e-02 1.810459999999999958e+00 3.279430000000000067e+00 1.593460000000000099e+00 2.749460000000000015e+00 5.762889999999999624e+00 -8.949999999999999623e-02 3.446429999999999882e+00 7.394500000000000517e-01 1.384090000000000042e+00 4.503409999999999691e+00 3.254430000000000156e+00 3.015480000000000160e+00 5.252550000000000274e+00 5.686069999999999958e+00 1.551609999999999934e+00 6.250549999999999606e+00 7.799399999999999666e-01 3.172250000000000014e+00 7.300709999999999589e+00 3.361250000000000071e+00 -1.523800000000000043e+00 8.296319999999999695e+00 5.870739999999999625e+00 4.544669999999999987e+00 7.958079999999999821e+00 9.236999999999999378e-02 1.663370000000000015e+00 8.756599999999999939e-01 2.457329999999999792e+00 1.481049999999999978e+00 9.847239999999999327e+00 5.101899999999999658e+00 1.589460000000000095e+00 2.529139999999999944e+00 1.600399999999999878e-01 2.915010000000000101e+00 3.611730000000000107e+00 2.547839999999999883e+00 4.607330000000000148e+00 4.542029999999999568e+00 4.991430000000000256e+00 2.933069999999999844e+00 5.243879999999999875e+00 1.782600000000000018e-01 4.566989999999999661e+00 6.249909999999999854e+00 2.524869999999999948e+00 2.593900000000000095e-01 6.947309999999999874e+00 5.390310000000000379e+00 1.627389999999999892e+00 7.991859999999999964e+00 5.910000000000000323e-03 4.555500000000000327e+00 9.144999999999999796e-01 2.365219999999999878e+00 -5.995999999999999941e-02 2.092179999999999929e+00 5.265089999999999826e+00 3.124709999999999877e+00 5.466359999999999886e+00 7.523290000000000255e+00 -8.921999999999999376e-02 3.516010000000000080e+00 2.578450000000000131e+00 1.492769999999999930e+00 4.416660000000000252e+00 5.090049999999999741e+00 -1.098999999999999977e-02 5.379319999999999879e+00 2.374499999999999944e-01 1.478990000000000027e+00 6.420930000000000248e+00 2.737890000000000157e+00 2.966810000000000169e+00 7.071620000000000239e+00 5.357330000000000148e+00 -1.630030000000000090e+00 8.214320000000000732e+00 4.080359999999999765e+00
1.666330000000000089e+00 7.805299999999999461e-01 7.423199999999999799e-01 3.037150000000000016e+00 1.817469999999999919e+00 3.331529999999999880e+00 4.730249999999999844e+00 2.803240000000000176e+00 5.977000000000000313e+00 2.994650000000000034e+00 3.873380000000000045e+00 8.275400000000000533e-01 4.598790000000000155e+00 4.708709999999999951e+00 3.315160000000000107e+00 -1.590900000000000092e-01 5.734829999999999650e+00 5.964279999999999582e+00 4.602280000000000371e+00 6.404569999999999652e+00 5.658400000000000096e-01 -3.387299999999999756e-01 7.329780000000000406e+00 3.238690000000000069e+00 1.401980000000000004e+00 8.203290000000000859e+00 5.989519999999999733e+00 4.883379999999999832e+00 8.827300000000000146e-01 8.102399999999999602e-01 -2.260199999999999987e-01 1.688970000000000082e+00 3.314610000000000056e+00 1.645210000000000061e+00 2.696499999999999897e+00 5.792690000000000339e+00 -8.197000000000000119e-02 3.681290000000000173e+00 7.407599999999999740e-01 1.362460000000000004e+00 4.609799999999999898e+00 3.350540000000000074e+00 3.179089999999999971e+00 5.415729999999999933e+00 6.211009999999999920e+00 1.427729999999999944e+00 6.566970000000000418e+00 7.322300000000000475e-01 2.950559999999999850e+00 7.524250000000000327e+00 3.348100000000000076e+00 -1.702120000000000077e+00 8.160030000000000783e+00 5.985999999999999766e+00 8.093999999999999806e-02 5.403000000000000164e-02 6.643000000000000294e-02 1.596959999999999935e+00 1.086030000000000051e+00 2.517450000000000188e+00 1.439079999999999915e+00 1.004681000000000068e+01 5.247419999999999973e+00 1.525949999999999918e+00 2.773200000000000109e+00 1.520400000000000085e-01 2.809200000000000141e+00 3.633189999999999920e+00 2.751799999999999802e+00 4.586470000000000269e+00 4.782759999999999678e+00 5.169200000000000017e+00 1.552210000000000090e+00 8.276400000000000645e+00 7.780249999999999666e+00 -1.583259999999999890e+00 6.312599999999999767e+00 2.256590000000000096e+00 -6.418999999999999706e-02 7.346940000000000026e+00 5.352030000000000065e+00 3.313839999999999897e+00 5.270999999999999991e-02 1.814999999999999947e-02 4.475579999999999892e+00 9.949299999999999811e-01 2.601970000000000116e+00 -5.637000000000000344e-02 2.138710000000000111e+00 5.505180000000000184e+00 4.643709999999999560e+00 2.785379999999999967e+00 3.761300000000000199e-01 -2.686600000000000099e-01 3.607790000000000052e+00 2.649169999999999803e+00 1.415780000000000038e+00 4.558810000000000251e+00 5.439160000000000217e+00 -1.095900000000000069e-01 5.474669999999999703e+00 1.889599999999999891e-01 1.453149999999999942e+00 6.422480000000000189e+00 2.682179999999999787e+00 2.856009999999999938e+00 7.133079999999999643e+00 5.746690000000000076e+00 -1.899929999999999897e+00 8.132239999999999469e+00 4.112589999999999968e+00
1.353709999999999969e+00 9.305600000000000538e-01 7.748500000000000387e-01 2.991989999999999927e+00 1.877739999999999965e+00 3.276539999999999786e+00 4.561670000000000336e+00 2.738750000000000018e+00 5.972360000000000113e+00 2.970410000000000217e+00 3.653179999999999872e+00 7.574699999999999767e-01 4.530140000000000278e+00 4.335890000000000022e+00 3.346589999999999954e+00 -3.334999999999999770e-02 5.350360000000000227e+00 5.905310000000000059e+00 4.659609999999999808e+00 6.193430000000000213e+00 6.553200000000000136e-01 -1.037700000000000011e-01 7.128359999999999808e+00 3.231869999999999798e+00 1.634279999999999955e+00 8.010859999999999204e+00 5.776139999999999830e+00 4.623960000000000292e+00 9.332399999999999585e-01 7.067600000000000549e-01 -3.404000000000000081e-02 1.743500000000000050e+00 3.378480000000000150e+00 1.583199999999999941e+00 2.589910000000000156e+00 5.872919999999999696e+00 -1.358499999999999985e-01 3.623159999999999936e+00 6.931399999999999784e-01 1.301900000000000057e+00 4.510110000000000063e+00 3.356430000000000025e+00 2.994009999999999838e+00 5.188480000000000203e+00 5.981930000000000192e+00 1.661200000000000010e+00 6.315220000000000056e+00 6.280700000000000172e-01 2.996119999999999894e+00 7.022549999999999848e+00 3.306999999999999940e+00 -1.481540000000000079e+00 7.956590000000000273e+00 5.751870000000000260e+00 -1.585110000000000019e+00 7.983480000000000132e+00 1.224800000000000055e-01 1.601529999999999898e+00 9.430399999999999894e-01 2.589820000000000011e+00 1.489309999999999912e+00 9.748639999999999972e+00 5.258130000000000415e+00 1.388759999999999994e+00 2.622700000000000031e+00 1.187799999999999967e-01 2.826830000000000176e+00 3.732540000000000191e+00 2.666739999999999888e+00 4.584299999999999820e+00 4.458840000000000359e+00 5.219289999999999985e+00 3.139580000000000037e+00 5.388060000000000294e+00 3.805999999999999661e-02 4.482120000000000104e+00 5.971280000000000143e+00 2.526980000000000004e+00 1.635999999999999954e-01 7.041400000000000325e+00 5.189329999999999998e+00 3.065080000000000027e+00 9.848999999999999422e-02 7.692999999999999838e-02 4.291750000000000398e+00 9.333599999999999675e-01 2.482680000000000220e+00 -1.531500000000000083e-01 1.960339999999999971e+00 5.298289999999999722e+00 4.539889999999999759e+00 2.742939999999999934e+00 1.552199999999999969e-01 -1.394900000000000029e-01 3.473009999999999931e+00 2.580049999999999955e+00 1.389599999999999946e+00 4.371310000000000251e+00 5.333800000000000097e+00 5.466000000000000025e-02 5.377650000000000041e+00 3.456000000000000044e-02 1.481800000000000006e+00 6.200789999999999580e+00 2.614679999999999893e+00 3.009100000000000108e+00 6.931879999999999598e+00 5.322079999999999700e+00 -1.667110000000000092e+00 7.940599999999999881e+00 3.965409999999999879e+00
1.560799999999999965e+00 7.428500000000000103e-01 7.767399999999999860e-01 3.103530000000000122e+00 1.975959999999999939e+00 3.172309999999999963e+00 4.473209999999999908e+00 2.761620000000000186e+00 5.939510000000000289e+00 3.014899999999999913e+00 3.504640000000000200e+00 7.854200000000000070e-01 4.622270000000000323e+00 4.328289999999999971e+00 3.290109999999999868e+00 -7.245000000000000051e-02 5.254349999999999632e+00 5.905470000000000219e+00 4.630200000000000315e+00 6.202799999999999869e+00 7.868800000000000239e-01 -1.723600000000000132e-01 7.167250000000000121e+00 3.317470000000000141e+00 1.438129999999999908e+00 8.214480000000000004e+00 5.866430000000000256e+00 4.583940000000000126e+00 8.817000000000000393e-01 6.128599999999999604e-01 -7.696999999999999675e-02 1.746699999999999919e+00 3.249000000000000110e+00 1.401920000000000055e+00 2.760390000000000121e+00 5.836030000000000051e+00 -8.930000000000000437e-03 3.614030000000000076e+00 6.999600000000000266e-01 1.492189999999999905e+00 4.531780000000000364e+00 3.256450000000000067e+00 2.917060000000000208e+00 5.414100000000000357e+00 5.838189999999999991e+00 1.445589999999999931e+00 6.307760000000000034e+00 8.020899999999999697e-01 3.179289999999999949e+00 7.103729999999999656e+00 3.315669999999999895e+00 -1.691680000000000073e+00 8.271850000000000591e+00 5.832069999999999865e+00 4.631219999999999892e+00 8.053990000000000649e+00 1.242199999999999971e-01 1.634819999999999940e+00 1.005109999999999948e+00 2.631209999999999827e+00 3.023530000000000051e+00 1.892079999999999984e+00 5.096009999999999707e+00 1.472990000000000022e+00 2.525570000000000093e+00 1.678600000000000092e-01 2.946200000000000152e+00 3.693880000000000052e+00 2.635949999999999793e+00 4.491839999999999833e+00 4.484580000000000233e+00 5.233109999999999928e+00 2.906690000000000218e+00 5.325639999999999930e+00 1.776399999999999924e-01 4.588619999999999699e+00 6.075990000000000002e+00 2.520729999999999915e+00 2.755000000000000157e-02 7.041839999999999655e+00 5.456760000000000055e+00 1.537509999999999932e+00 8.019019999999999371e+00 9.791999999999999316e-02 4.481440000000000090e+00 9.996000000000000441e-01 2.532620000000000093e+00 -1.301799999999999902e-01 2.179819999999999869e+00 5.173189999999999955e+00 4.514680000000000248e+00 2.763609999999999900e+00 8.759000000000000119e-02 -1.443999999999999971e-02 3.538390000000000146e+00 2.629300000000000193e+00 1.472099999999999964e+00 4.480839999999999712e+00 5.181440000000000268e+00 -2.103999999999999967e-02 5.443970000000000198e+00 3.022999999999999993e-02 1.372509999999999897e+00 6.303480000000000416e+00 2.693000000000000060e+00 2.934000000000000163e+00 7.150920000000000165e+00 5.386730000000000018e+00 -1.552640000000000020e+00 8.090579999999999217e+00 3.993780000000000108e+00
1.466609999999999969e+00 7.014099999999999779e-01 6.848999999999999533e-01 3.106349999999999945e+00 1.900360000000000049e+00 3.191260000000000208e+00 4.845880000000000187e+00 2.909460000000000157e+00 5.920609999999999928e+00 3.167460000000000164e+00 3.627289999999999903e+00 6.320999999999999952e-01 5.019910000000000316e+00 4.449099999999999611e+00 3.219110000000000138e+00 3.609999999999999928e-03 5.475640000000000285e+00 5.753350000000000186e+00 4.838090000000000224e+00 6.392649999999999721e+00 7.559799999999999853e-01 6.135000000000000175e-02 7.677529999999999966e+00 3.365889999999999826e+00 1.833020000000000094e+00 8.438789999999999125e+00 5.955460000000000420e+00 4.781039999999999957e+00 7.914799999999999613e-01 6.329500000000000126e-01 3.542000000000000148e-01 1.882270000000000110e+00 3.536519999999999886e+00 1.555779999999999941e+00 2.891270000000000007e+00 5.913269999999999804e+00 5.346000000000000058e-02 3.646030000000000104e+00 7.776999999999999469e-01 1.639510000000000023e+00 4.716269999999999740e+00 3.305719999999999992e+00 3.116470000000000073e+00 5.455300000000000260e+00 6.021620000000000417e+00 1.739610000000000101e+00 6.409980000000000011e+00 8.727899999999999547e-01 3.522969999999999935e+00 7.400389999999999802e+00 3.350190000000000001e+00 -1.390239999999999920e+00 8.177429999999999310e+00 5.869460000000000122e+00 4.846809999999999619e+00 8.211320000000000618e+00 1.740800000000000125e-01 1.655259999999999954e+00 1.042370000000000019e+00 2.519249999999999989e+00 3.344780000000000086e+00 2.066850000000000076e+00 5.119189999999999685e+00 5.584999999999999687e-02 5.481749999999999901e+00 7.732599999999999696e+00 3.226640000000000175e+00 3.765190000000000037e+00 2.622900000000000009e+00 4.603830000000000311e+00 4.721219999999999750e+00 5.139210000000000278e+00 3.252899999999999903e+00 5.559770000000000323e+00 1.456800000000000039e-01 4.937009999999999899e+00 6.251459999999999795e+00 2.731180000000000163e+00 2.101300000000000112e-01 7.412630000000000052e+00 5.529480000000000395e+00 1.631070000000000020e+00 8.057740000000000791e+00 1.933100000000000096e-01 3.008799999999999919e+00 9.014849999999999142e+00 2.412339999999999929e+00 7.800999999999999601e-02 2.401800000000000157e+00 5.298930000000000362e+00 4.888620000000000410e+00 2.762809999999999988e+00 1.804900000000000115e-01 2.222699999999999954e-01 3.851480000000000015e+00 2.546429999999999971e+00 1.619650000000000034e+00 4.579279999999999795e+00 5.335650000000000226e+00 1.715000000000000135e-01 5.678130000000000344e+00 1.870999999999999885e-01 1.702820000000000000e+00 6.535479999999999734e+00 2.854249999999999954e+00 3.283119999999999816e+00 7.312330000000000219e+00 5.488080000000000069e+00 -1.551129999999999898e+00 8.552929999999999922e+00 4.080510000000000304e+00