6.180257280000000186e+00 0.000000000000000000e+00 0.000000000000000000e+00 -1.627723712999999961e+00 8.097881506000000229e+00 0.000000000000000000e+00 -1.366640870999999979e+00 2.636854963000000218e+00 7.600588572999999570e+00
6.219444822999999900e+00 0.000000000000000000e+00 0.000000000000000000e+00 -1.604933890999999946e+00 8.070022572999999255e+00 0.000000000000000000e+00 -1.611970837999999961e+00 2.604281021999999890e+00 7.668000484000000228e+00
6.393880642000000059e+00 0.000000000000000000e+00 0.000000000000000000e+00 -1.438702694999999920e+00 8.300163208000000736e+00 0.000000000000000000e+00 -1.870271149999999993e+00 2.740287302000000036e+00 7.692317398000000139e+00
6.176322209000000285e+00 0.000000000000000000e+00 0.000000000000000000e+00 -1.674785168000000102e+00 8.219930811999999420e+00 0.000000000000000000e+00 -1.634079993000000064e+00 2.927140307999999802e+00 7.545574822999999931e+00
6.195718158000000031e+00 0.000000000000000000e+00 0.000000000000000000e+00 -1.625153335999999893e+00 7.971703333999999863e+00 0.000000000000000000e+00 -1.549140463000000079e+00 2.662322234999999981e+00 7.545417631000000291e+00
6.090235175000000112e+00 0.000000000000000000e+00 0.000000000000000000e+00 4.577282481000000125e+00 8.135646094000000161e+00 0.000000000000000000e+00 4.717804841999999610e+00 2.820667535000000115e+00 7.728495178000000188e+00
6.334341880000000202e+00 0.000000000000000000e+00 0.000000000000000000e+00 -1.671783715999999975e+00 8.071440902999999167e+00 0.000000000000000000e+00 -1.533455922999999999e+00 2.700115525999999821e+00 7.607193233000000276e+00
6.125540505000000024e+00 0.000000000000000000e+00 0.000000000000000000e+00 -1.305402645000000028e+00 8.173907525000000618e+00 0.000000000000000000e+00 -1.156495746999999907e+00 3.017717053000000149e+00 7.756809752999999752e+00
6.141009846000000216e+00 0.000000000000000000e+00 0.000000000000000000e+00 -1.553893155999999998e+00 8.025346307999999595e+00 0.000000000000000000e+00 -1.632583498000000022e+00 2.786889775000000125e+00 7.687893685999999782e+00
6.350197503000000410e+00 0.000000000000000000e+00 0.000000000000000000e+00 -1.673902465999999922e+00 8.162348210999999409e+00 0.000000000000000000e+00 -1.511742490000000050e+00 2.773216933000000051e+00 7.664786390999999810e+00
6.150200220000000328e+00 0.000000000000000000e+00 0.000000000000000000e+00 -1.392780410000000080e+00 8.051428977000000486e+00 0.000000000000000000e+00 -1.673058783000000105e+00 2.684234410999999820e+00 7.735633035000000213e+00
6.362774017999999643e+00 0.000000000000000000e+00 0.000000000000000000e+00 -1.676837576999999913e+00 8.174286098999999695e+00 0.000000000000000000e+00 -1.500382031000000005e+00 2.789479469000000211e+00 7.932423753000000133e+00
6.123498391000000041e+00 0.000000000000000000e+00 0.000000000000000000e+00 -1.593121336999999915e+00 7.951902656999999763e+00 0.000000000000000000e+00 -1.481970309999999902e+00 2.724212559000000144e+00 7.487954230999999794e+00
6.164580216000000057e+00 0.000000000000000000e+00 0.000000000000000000e+00 -1.693000916999999994e+00 8.024186565000000826e+00 0.000000000000000000e+00 -1.323214051999999974e+00 2.652123291000000105e+00 7.530539778999999712e+00
6.158076431999999656e+00 0.000000000000000000e+00 0.000000000000000000e+00 -1.696256310000000100e+00 8.055108220999999347e+00 0.000000000000000000e+00 -1.362774359999999962e+00 2.585630826000000049e+00 7.708676636999999943e+00
6.373044933000000078e+00 0.000000000000000000e+00 0.000000000000000000e+00 -1.479376900000000106e+00 8.133498388999999662e+00 0.000000000000000000e+00 -1.480753132000000027e+00 2.576494803000000111e+00 7.696308498999999692e+00
6.278438411999999857e+00 0.000000000000000000e+00 0.000000000000000000e+00 -1.714121978000000102e+00 8.045039586999999770e+00 0.000000000000000000e+00 -1.398743405999999911e+00 2.584638415000000133e+00 7.502470749999999633e+00
6.434811430999999970e+00 0.000000000000000000e+00 0.000000000000000000e+00 -1.701332083999999911e+00 8.236456953999999442e+00 0.000000000000000000e+00 -1.637223821999999940e+00 2.719366634000000005e+00 7.895253388000000427e+00
6.090235175000000112e+00 0.000000000000000000e+00 0.000000000000000000e+00 4.577282481000000125e+00 8.135646094000000161e+00 0.000000000000000000e+00 4.717804841999999610e+00 2.820667535000000115e+00 7.728495178000000188e+00
6.216938437999999678e+00 0.000000000000000000e+00 0.000000000000000000e+00 -1.781255527999999977e+00 8.121582384999999960e+00 0.000000000000000000e+00 -1.372253431000000079e+00 2.637849960000000049e+00 7.559867403000000152e+00
6.301635605000000417e+00 0.000000000000000000e+00 0.000000000000000000e+00 4.863691661999999916e+00 8.140620174000000375e+00 0.000000000000000000e+00 4.644747050000000321e+00 2.835680841999999924e+00 7.484841781000000083e+00
6.393638325999999594e+00 0.000000000000000000e+00 0.000000000000000000e+00 -1.751204889000000042e+00 8.159342777999999186e+00 0.000000000000000000e+00 -1.602817404000000057e+00 2.701914824999999798e+00 7.688762451999999747e+00
5.981673196000000026e+00 0.000000000000000000e+00 0.000000000000000000e+00 4.457592631999999888e+00 7.935498873000000231e+00 0.000000000000000000e+00 4.376330916999999765e+00 2.441554958000000219e+00 7.420771384000000026e+00
6.264636871999999634e+00 0.000000000000000000e+00 0.000000000000000000e+00 -1.599137237999999961e+00 8.124684182999999393e+00 0.000000000000000000e+00 -1.585657112999999896e+00 2.765483054000000163e+00 7.687248351000000035e+00
6.120364468000000002e+00 0.000000000000000000e+00 0.000000000000000000e+00 -1.396842522000000031e+00 7.996495803000000180e+00 0.000000000000000000e+00 -1.460822069000000001e+00 2.724670544999999944e+00 7.594689448999999648e+00
6.189330630999999805e+00 0.000000000000000000e+00 0.000000000000000000e+00 -1.611001713000000057e+00 7.979406495000000099e+00 0.000000000000000000e+00 -1.624739120999999953e+00 2.601012750000000207e+00 7.619599258000000042e+00
6.194421067999999586e+00 0.000000000000000000e+00 0.000000000000000000e+00 -1.676107849999999955e+00 8.155895197999999624e+00 0.000000000000000000e+00 -1.614578531000000039e+00 2.858351697999999885e+00 7.632782931999999576e+00
6.248975918000000185e+00 0.000000000000000000e+00 0.000000000000000000e+00 -1.769924738000000053e+00 8.085511238000000489e+00 0.000000000000000000e+00 -1.358293594000000049e+00 2.696602205000000030e+00 7.414666826000000377e+00
6.300262992000000395e+00 0.000000000000000000e+00 0.000000000000000000e+00 -1.643546780999999957e+00 8.297300693000000393e+00 0.000000000000000000e+00 -1.698265589000000020e+00 2.701269046000000174e+00 7.750794062999999845e+00
6.163376904999999795e+00 0.000000000000000000e+00 0.000000000000000000e+00 -1.678354239999999997e+00 8.099952980999999497e+00 0.000000000000000000e+00 -1.613855083000000024e+00 2.754579177000000101e+00 7.587094356999999789e+00
6.285973148000000066e+00 0.000000000000000000e+00 0.000000000000000000e+00 -1.623881474000000047e+00 8.229159962000000661e+00 0.000000000000000000e+00 -1.635310633000000013e+00 2.684629925999999944e+00 7.631402976000000393e+00
6.219617399999999741e+00 0.000000000000000000e+00 0.000000000000000000e+00 -1.476218548999999935e+00 8.048926608000000371e+00 0.000000000000000000e+00 -1.566133656999999957e+00 2.714522351999999916e+00 7.602949156000000208e+00
6.266800239000000161e+00 0.000000000000000000e+00 0.000000000000000000e+00 -1.743188809000000061e+00 8.168726460000000245e+00 0.000000000000000000e+00 -1.601096107000000046e+00 2.801389818000000087e+00 7.764411819000000214e+00
6.220218837000000001e+00 0.000000000000000000e+00 0.000000000000000000e+00 -1.617816805999999996e+00 8.090414445000000399e+00 0.000000000000000000e+00 -1.501416389000000073e+00 2.785466219999999993e+00 7.709043712999999798e+00
6.219757281999999776e+00 0.000000000000000000e+00 0.000000000000000000e+00 -1.641256717000000087e+00 8.121036981999999682e+00 0.000000000000000000e+00 -1.532393241000000073e+00 2.737481981999999814e+00 7.561087148999999563e+00
6.249461862000000423e+00 0.000000000000000000e+00 0.000000000000000000e+00 -1.561427048000000095e+00 7.966998521999999916e+00 0.000000000000000000e+00 -1.382594555000000058e+00 2.495055778999999863e+00 7.905399354000000045e+00
6.132049437000000047e+00 0.000000000000000000e+00 0.000000000000000000e+00 4.584766255999999984e+00 8.162024950999999362e+00 0.000000000000000000e+00 4.738696209999999631e+00 2.825791275999999907e+00 7.718902027000000388e+00
6.182036928999999681e+00 0.000000000000000000e+00 0.000000000000000000e+00 -1.683342200000000011e+00 8.150130948999999347e+00 0.000000000000000000e+00 -1.579743405000000100e+00 2.511569925999999953e+00 7.555083194999999918e+00
6.308157805999999646e+00 0.000000000000000000e+00 0.000000000000000000e+00 -1.588467271000000069e+00 8.054990300000000047e+00 0.000000000000000000e+00 -1.418914377999999976e+00 2.579190395999999996e+00 7.980534152999999797e+00
6.032540344000000054e+00 0.000000000000000000e+00 0.000000000000000000e+00 -1.466543681000000099e+00 8.041397701999999370e+00 0.000000000000000000e+00 -1.622555769000000092e+00 2.670937696999999833e+00 7.568698086000000380e+00
6.155651025000000054e+00 0.000000000000000000e+00 0.000000000000000000e+00 -1.519372549000000072e+00 7.915286183000000086e+00 0.000000000000000000e+00 -1.565616738999999979e+00 2.609049913000000220e+00 7.538839143999999770e+00
6.292256304000000355e+00 0.000000000000000000e+00 0.000000000000000000e+00 -1.546701713000000034e+00 8.135842860000000343e+00 0.000000000000000000e+00 -1.662118487000000089e+00 2.958130221999999865e+00 7.632596739000000241e+00
6.329989249999999679e+00 0.000000000000000000e+00 0.000000000000000000e+00 -1.816733158999999986e+00 8.074018086000000594e+00 0.000000000000000000e+00 -1.605151191999999893e+00 2.643593919999999819e+00 7.570433934000000420e+00
6.230447910999999728e+00 0.000000000000000000e+00 0.000000000000000000e+00 -1.716440393999999925e+00 8.142052744000000786e+00 0.000000000000000000e+00 -1.516802275999999949e+00 2.718292582000000124e+00 7.811615275000000302e+00
6.271204088000000176e+00 0.000000000000000000e+00 0.000000000000000000e+00 -1.551927937000000091e+00 8.058231656000000243e+00 0.000000000000000000e+00 -1.357797112999999944e+00 2.424831524000000016e+00 7.435389096999999836e+00
6.336632587999999622e+00 0.000000000000000000e+00 0.000000000000000000e+00 -1.672629498999999909e+00 8.184307834000000170e+00 0.000000000000000000e+00 -1.561741736000000103e+00 2.750872162999999926e+00 7.598639845000000115e+00
6.313326499999999619e+00 0.000000000000000000e+00 0.000000000000000000e+00 -1.651500033999999895e+00 8.208306697999999457e+00 0.000000000000000000e+00 -1.560377066999999895e+00 2.876391314000000143e+00 7.795251138000000246e+00
6.239451724000000254e+00 0.000000000000000000e+00 0.000000000000000000e+00 -1.436676346000000049e+00 8.155925146999999598e+00 0.000000000000000000e+00 -1.489584787000000077e+00 2.645945295000000197e+00 7.707341485999999797e+00
6.434908139000000027e+00 0.000000000000000000e+00 0.000000000000000000e+00 -1.546810854999999929e+00 8.114870774999999981e+00 0.000000000000000000e+00 -1.507863997000000067e+00 2.625029574000000032e+00 7.782498735999999973e+00
6.265385557000000105e+00 0.000000000000000000e+00 0.000000000000000000e+00 -1.646971192999999944e+00 8.155952419000000120e+00 0.000000000000000000e+00 -1.792751519000000071e+00 2.596098940000000077e+00 7.721902678000000186e+00
