1.531130000000000102e+00 8.154500000000000082e-01 6.463499999999999801e-01 3.154869999999999841e+00 1.820410000000000084e+00 3.333509999999999973e+00 4.651500000000000412e+00 2.783980000000000121e+00 5.685780000000000278e+00 2.930419999999999803e+00 3.516830000000000123e+00 9.337299999999999489e-01 4.851569999999999716e+00 4.357280000000000264e+00 3.172670000000000101e+00 2.268000000000000016e-01 5.272619999999999862e+00 5.869629999999999903e+00 4.361049999999999649e+00 6.323949999999999960e+00 7.087499999999999911e-01 -1.695500000000000063e-01 6.975920000000000343e+00 3.201470000000000038e+00 1.446919999999999984e+00 7.980529999999999902e+00 5.976589999999999847e+00 4.490470000000000184e+00 7.513100000000000334e-01 7.338200000000000278e-01 1.288999999999999868e-01 1.749360000000000026e+00 3.031229999999999869e+00 1.678609999999999935e+00 2.637960000000000083e+00 5.684759999999999813e+00 -9.067999999999999672e-02 3.495649999999999924e+00 5.991699999999999804e-01 1.776980000000000004e+00 4.488520000000000287e+00 3.330979999999999830e+00 3.270360000000000156e+00 5.475030000000000285e+00 5.871150000000000091e+00 1.229919999999999902e+00 6.255899999999999572e+00 7.725100000000000300e-01 3.041619999999999990e+00 7.274370000000000225e+00 3.318340000000000067e+00 -1.646109999999999962e+00 8.129360000000000142e+00 5.761940000000000062e+00 6.030789999999999651e+00 9.941999999999999449e-02 1.128299999999999997e-01 1.797379999999999978e+00 1.185999999999999943e+00 2.317790000000000017e+00 3.201070000000000082e+00 1.771570000000000089e+00 5.096809999999999619e+00 1.547339999999999938e+00 2.701810000000000045e+00 1.677800000000000125e-01 3.256810000000000205e+00 3.553399999999999892e+00 2.659009999999999874e+00 -1.484110000000000040e+00 4.549059999999999881e+00 5.179219999999999935e+00 2.834340000000000082e+00 5.366050000000000431e+00 1.975999999999999979e-01 4.387410000000000032e+00 6.157949999999999591e+00 2.607610000000000205e+00 2.861999999999999961e-02 7.032429999999999737e+00 5.364830000000000432e+00 -5.235000000000000070e-02 1.047588999999999970e+01 7.595049999999999635e+00 2.924409999999999954e+00 8.962030000000000385e+00 2.539950000000000152e+00 1.285999999999999990e-02 2.116150000000000198e+00 5.111449999999999605e+00 4.546039999999999637e+00 2.523169999999999913e+00 1.793599999999999917e-01 1.260199999999999931e-01 3.560789999999999900e+00 2.460069999999999979e+00 1.695240000000000080e+00 4.434789999999999566e+00 5.224730000000000096e+00 -3.747900000000000120e-01 5.386949999999999683e+00 2.814699999999999980e-01 1.441310000000000091e+00 6.295860000000000234e+00 2.710729999999999862e+00 2.858989999999999920e+00 7.156390000000000029e+00 5.267949999999999910e+00 -1.439449999999999896e+00 8.184739999999999682e+00 3.863100000000000200e+00
1.506380000000000052e+00 9.204099999999999504e-01 7.202399999999999913e-01 2.919389999999999930e+00 1.853169999999999984e+00 3.235840000000000050e+00 4.473080000000000389e+00 2.648179999999999978e+00 5.883379999999999832e+00 3.006829999999999892e+00 3.584429999999999783e+00 7.125000000000000222e-01 4.512030000000000207e+00 4.415790000000000326e+00 3.327350000000000030e+00 -1.646700000000000108e-01 5.242200000000000415e+00 5.865219999999999878e+00 4.709120000000000417e+00 6.263550000000000395e+00 6.000999999999999668e-01 -1.587200000000000000e-01 7.176980000000000359e+00 3.308600000000000207e+00 1.504629999999999912e+00 8.038199999999999790e+00 5.963610000000000078e+00 4.614099999999999646e+00 9.606299999999999839e-01 7.028699999999999948e-01 -1.801000000000000101e-01 1.664679999999999938e+00 3.398519999999999985e+00 1.427210000000000090e+00 2.625430000000000152e+00 5.870110000000000383e+00 -5.129999999999999838e-02 3.571790000000000020e+00 7.835400000000000142e-01 1.384800000000000031e+00 4.478100000000000414e+00 3.287389999999999812e+00 2.933380000000000098e+00 5.240490000000000315e+00 5.871039999999999814e+00 1.528019999999999934e+00 6.307120000000000282e+00 7.500599999999999490e-01 3.084290000000000198e+00 7.151349999999999874e+00 3.282770000000000188e+00 -1.599630000000000107e+00 7.899379999999999846e+00 5.723290000000000433e+00 4.551980000000000359e+00 8.111869999999999692e+00 1.551899999999999946e-01 1.534820000000000073e+00 9.250199999999999534e-01 2.553160000000000096e+00 2.959960000000000147e+00 1.773009999999999975e+00 5.152770000000000294e+00 1.444090000000000096e+00 2.712060000000000137e+00 1.196799999999999947e-01 2.910550000000000193e+00 3.682749999999999968e+00 2.629220000000000113e+00 4.443529999999999980e+00 4.411909999999999776e+00 5.265539999999999665e+00 3.109379999999999811e+00 5.408260000000000289e+00 6.893000000000000516e-02 4.664080000000000226e+00 6.054429999999999978e+00 2.415709999999999802e+00 1.468399999999999983e-01 6.982109999999999594e+00 5.305030000000000356e+00 1.444090000000000096e+00 8.098409999999999442e+00 1.456600000000000117e-01 4.343219999999999636e+00 9.903499999999999526e-01 2.509609999999999896e+00 -1.711300000000000043e-01 1.869259999999999922e+00 5.415840000000000209e+00 4.631370000000000431e+00 2.743609999999999882e+00 9.431000000000000494e-02 -1.662800000000000111e-01 3.505370000000000097e+00 2.767759999999999998e+00 1.362740000000000062e+00 4.379500000000000171e+00 5.174970000000000070e+00 5.249999999999999806e-02 5.335740000000000371e+00 4.626999999999999863e-02 1.465379999999999905e+00 6.276729999999999698e+00 2.692039999999999988e+00 2.829299999999999926e+00 6.942309999999999981e+00 5.276069999999999816e+00 -1.684639999999999915e+00 8.005559999999999121e+00 3.934590000000000032e+00
1.729970000000000008e+00 1.022720000000000073e+00 9.189199999999999591e-01 2.995159999999999823e+00 2.079680000000000195e+00 3.319119999999999848e+00 4.578979999999999606e+00 2.912510000000000154e+00 5.996439999999999770e+00 3.036329999999999973e+00 3.747749999999999915e+00 5.107599999999999918e-01 4.676330000000000098e+00 4.561790000000000234e+00 3.229890000000000150e+00 -3.792099999999999915e-01 5.441639999999999588e+00 5.885690000000000310e+00 4.907980000000000231e+00 6.374530000000000030e+00 7.336300000000000043e-01 -2.453999999999999931e-02 7.480949999999999989e+00 3.097119999999999873e+00 1.649480000000000057e+00 8.236129999999999285e+00 5.843370000000000175e+00 4.691169999999999618e+00 1.000180000000000069e+00 7.077599999999999447e-01 -3.005599999999999938e-01 1.743060000000000054e+00 3.242090000000000138e+00 1.408530000000000060e+00 2.737220000000000208e+00 5.968939999999999912e+00 1.196500000000000064e-01 3.819659999999999833e+00 7.852200000000000291e-01 1.362290000000000001e+00 4.508709999999999773e+00 3.303100000000000147e+00 2.892310000000000159e+00 5.349579999999999558e+00 5.931989999999999874e+00 1.803590000000000027e+00 6.444840000000000124e+00 5.973699999999999566e-01 3.191780000000000062e+00 7.385159999999999947e+00 3.081939999999999902e+00 -1.678020000000000067e+00 8.288579999999999615e+00 5.742790000000000283e+00 4.909709999999999575e+00 8.140010000000000190e+00 3.141800000000000148e-01 1.442010000000000014e+00 1.208180000000000032e+00 2.663240000000000052e+00 1.689219999999999944e+00 1.013573000000000057e+01 5.326299999999999812e+00 1.551039999999999974e+00 2.782649999999999846e+00 1.132999999999999979e-02 2.936150000000000038e+00 3.885549999999999837e+00 2.567029999999999923e+00 4.525280000000000413e+00 4.540390000000000370e+00 5.277319999999999567e+00 1.525330000000000075e+00 8.176859999999999573e+00 7.581959999999999589e+00 4.500329999999999941e+00 6.119690000000000296e+00 2.445699999999999985e+00 3.987000000000000266e-02 7.350480000000000125e+00 5.448019999999999641e+00 1.838999999999999968e+00 8.214359999999999218e+00 1.491500000000000048e-01 4.324910000000000032e+00 1.072940000000000005e+00 2.473460000000000214e+00 -1.383500000000000008e-01 2.015680000000000138e+00 5.436530000000000307e+00 4.782960000000000100e+00 2.924869999999999859e+00 1.737200000000000133e-01 -1.916499999999999870e-01 3.761280000000000179e+00 2.573729999999999851e+00 1.207649999999999890e+00 4.528579999999999828e+00 5.389879999999999782e+00 2.259099999999999997e-01 5.556289999999999729e+00 1.252900000000000125e-01 1.435140000000000082e+00 6.336339999999999861e+00 2.735430000000000028e+00 3.028020000000000156e+00 7.080339999999999634e+00 5.352590000000000181e+00 -1.694320000000000048e+00 8.177619999999999223e+00 3.834140000000000104e+00
1.480359999999999898e+00 8.124299999999999855e-01 8.298900000000000166e-01 3.163850000000000051e+00 1.898619999999999974e+00 3.407810000000000006e+00 4.618070000000000341e+00 3.085580000000000211e+00 5.847450000000000259e+00 2.968929999999999847e+00 3.489500000000000046e+00 1.003449999999999953e+00 4.617720000000000269e+00 4.470189999999999664e+00 3.060950000000000060e+00 5.217000000000000109e-02 5.599140000000000228e+00 5.860120000000000218e+00 4.298510000000000275e+00 6.594249999999999723e+00 6.728300000000000392e-01 -3.256600000000000050e-01 7.440159999999999663e+00 3.246570000000000178e+00 1.135960000000000081e+00 8.341049999999999187e+00 6.021510000000000140e+00 4.580029999999999824e+00 1.055409999999999959e+00 5.098300000000000054e-01 -7.681000000000000327e-02 1.813399999999999901e+00 3.247279999999999944e+00 1.548659999999999926e+00 2.873159999999999936e+00 5.753650000000000375e+00 8.276000000000000023e-02 3.775349999999999984e+00 5.408100000000000129e-01 1.600330000000000030e+00 4.828769999999999563e+00 3.129259999999999931e+00 2.966509999999999980e+00 5.688410000000000188e+00 5.696600000000000108e+00 1.097029999999999950e+00 6.513469999999999871e+00 5.405100000000000460e-01 2.802270000000000039e+00 7.380200000000000315e+00 3.276920000000000055e+00 -1.912390000000000034e+00 8.516569999999999752e+00 5.690109999999999779e+00 2.847999999999999837e-02 1.256099999999999994e-01 8.981000000000000094e-02 1.707489999999999952e+00 1.075209999999999999e+00 2.661739999999999995e+00 1.474639999999999951e+00 1.003776000000000046e+01 5.280949999999999811e+00 1.475770000000000026e+00 2.453739999999999810e+00 1.360800000000000065e-01 3.086500000000000021e+00 3.613480000000000025e+00 2.877860000000000085e+00 -1.548540000000000028e+00 4.848550000000000360e+00 5.084859999999999935e+00 2.289229999999999876e+00 5.059440000000000381e+00 2.558199999999999918e-01 4.251459999999999795e+00 6.230710000000000193e+00 2.387020000000000142e+00 -2.419199999999999962e-01 7.285840000000000316e+00 5.403970000000000162e+00 1.486969999999999903e+00 8.217309999999999448e+00 8.000000000000000654e-05 4.372130000000000294e+00 9.112400000000000500e-01 2.280619999999999870e+00 -5.494000000000000272e-02 2.174650000000000194e+00 5.150710000000000122e+00 4.600380000000000358e+00 2.945710000000000051e+00 5.516999999999999682e-02 2.910000000000000087e-02 3.688579999999999970e+00 2.658329999999999860e+00 1.704450000000000021e+00 4.695549999999999891e+00 5.073889999999999567e+00 -2.102819999999999911e+00 8.633630000000000138e+00 7.515080000000000204e+00 1.172700000000000076e+00 6.596040000000000347e+00 2.340819999999999901e+00 2.644540000000000113e+00 7.485940000000000261e+00 5.362470000000000070e+00 -1.870600000000000041e+00 8.283929999999999794e+00 3.851640000000000175e+00
1.381089999999999929e+00 8.646300000000000097e-01 7.582999999999999741e-01 3.145859999999999879e+00 1.904230000000000089e+00 3.204309999999999992e+00 4.662340000000000373e+00 2.494580000000000020e+00 5.850550000000000139e+00 2.905520000000000103e+00 3.523909999999999876e+00 6.702000000000000179e-01 4.553429999999999644e+00 4.404959999999999987e+00 3.294540000000000024e+00 9.568000000000000116e-02 5.237479999999999691e+00 5.703619999999999912e+00 4.420350000000000001e+00 6.079979999999999940e+00 6.919899999999999940e-01 -2.815300000000000025e-01 7.179269999999999818e+00 3.345629999999999882e+00 1.477710000000000079e+00 8.047280000000000655e+00 5.747959999999999958e+00 4.392019999999999591e+00 9.353399999999999492e-01 6.462099999999999511e-01 -2.741000000000000034e-02 1.775910000000000100e+00 3.245659999999999989e+00 1.610130000000000061e+00 2.699170000000000069e+00 5.873190000000000133e+00 -1.192300000000000026e-01 3.481510000000000105e+00 7.351900000000000102e-01 1.521919999999999940e+00 4.394510000000000360e+00 3.241429999999999811e+00 3.173090000000000188e+00 5.234060000000000379e+00 5.748420000000000307e+00 1.267700000000000049e+00 6.194860000000000255e+00 6.917299999999999560e-01 2.936040000000000205e+00 7.191950000000000287e+00 3.294140000000000068e+00 -1.699259999999999993e+00 7.819149999999999601e+00 5.675779999999999603e+00 4.365540000000000198e+00 7.999430000000000263e+00 2.189200000000000035e-01 1.795700000000000074e+00 8.949799999999999978e-01 2.490089999999999915e+00 3.074279999999999902e+00 1.820820000000000105e+00 5.070289999999999964e+00 1.464960000000000040e+00 2.675949999999999829e+00 3.926999999999999935e-02 3.038759999999999906e+00 3.654259999999999842e+00 2.553710000000000147e+00 -1.493279999999999941e+00 4.308880000000000265e+00 5.215399999999999814e+00 2.970429999999999904e+00 5.304160000000000430e+00 1.462700000000000111e-01 4.312160000000000437e+00 6.044710000000000250e+00 2.551120000000000054e+00 -2.756000000000000116e-02 6.980579999999999785e+00 5.297579999999999956e+00 1.236359999999999904e+00 7.918459999999999610e+00 1.734600000000000031e-01 4.486799999999999677e+00 1.013980000000000103e+00 2.444350000000000023e+00 6.450000000000000178e-02 2.085329999999999906e+00 5.188659999999999606e+00 4.528069999999999595e+00 2.616480000000000139e+00 2.302999999999999839e-02 -1.430800000000000127e-01 3.635110000000000063e+00 2.621020000000000127e+00 1.717649999999999899e+00 4.402890000000000192e+00 5.080189999999999984e+00 -1.699680000000000080e+00 7.974459999999999660e+00 7.527289999999999814e+00 1.441130000000000022e+00 6.261510000000000353e+00 2.617350000000000065e+00 2.815650000000000208e+00 6.907610000000000028e+00 5.200940000000000119e+00 -1.748839999999999950e+00 8.056580000000000297e+00 3.940389999999999837e+00
1.474909999999999943e+00 8.533100000000000129e-01 6.228700000000000347e-01 3.097280000000000033e+00 1.777079999999999993e+00 3.340250000000000163e+00 4.670029999999999681e+00 2.851770000000000138e+00 5.822919999999999874e+00 3.034809999999999786e+00 3.406979999999999897e+00 7.700200000000000378e-01 4.669839999999999769e+00 4.557030000000000136e+00 3.299749999999999961e+00 6.162259999999999849e+00 5.471020000000000216e+00 5.871199999999999974e+00 4.426870000000000083e+00 6.337790000000000035e+00 6.678699999999999637e-01 5.960359999999999658e+00 7.366629999999999789e+00 3.317379999999999995e+00 7.694810000000000372e+00 8.375759999999999650e+00 5.995250000000000412e+00 4.570260000000000211e+00 9.291800000000000059e-01 6.034100000000000019e-01 6.176009999999999778e+00 1.812640000000000029e+00 3.300190000000000179e+00 7.783970000000000056e+00 2.976259999999999906e+00 5.794089999999999741e+00 6.255969999999999587e+00 3.766220000000000123e+00 6.650500000000000300e-01 7.776329999999999742e+00 4.531380000000000408e+00 2.951220000000000176e+00 9.328440000000000509e+00 5.519720000000000404e+00 5.937770000000000437e+00 7.341289999999999871e+00 6.518460000000000143e+00 9.289199999999999680e-01 9.278389999999999915e+00 7.391440000000000232e+00 3.245569999999999844e+00 1.080829999999999913e+01 8.309810000000000585e+00 5.819860000000000255e+00 1.057840000000000025e+01 8.058339999999999392e+00 2.228000000000000119e-02 1.660949999999999926e+00 9.565099999999999714e-01 2.476929999999999854e+00 1.381300000000000061e+01 1.002289999999999992e+01 5.276769999999999960e+00 6.222159999999999691e+00 5.389689999999999870e+00 7.721079999999999721e+00 3.244289999999999896e+00 3.491220000000000212e+00 2.695460000000000189e+00 1.075000000000000000e+01 4.640259999999999607e+00 5.228119999999999656e+00 8.048159999999999314e+00 4.854000000000000092e+00 1.068959999999999910e+00 4.555109999999999992e+00 6.233109999999999928e+00 2.462380000000000013e+00 6.402059999999999640e+00 7.263919999999999710e+00 5.394280000000000186e+00 7.628199999999999648e+00 8.123290000000000788e+00 1.352000000000000077e-02 4.517739999999999867e+00 1.052780000000000049e+00 2.442899999999999849e+00 6.247139999999999915e+00 2.140890000000000182e+00 5.329979999999999940e+00 4.614379999999999704e+00 2.761559999999999793e+00 9.954000000000000348e-02 6.133339999999999570e+00 3.627940000000000165e+00 2.595369999999999955e+00 7.749410000000000132e+00 4.819759999999999600e+00 5.119620000000000282e+00 5.869519999999999627e+00 5.564619999999999678e+00 1.879999999999999944e-03 7.586350000000000371e+00 6.525509999999999700e+00 3.022730000000000139e+00 8.860360000000000014e+00 7.198640000000000150e+00 5.287810000000000343e+00 1.068570000000000064e+01 8.211230000000000473e+00 4.019739999999999647e+00
1.651089999999999947e+00 1.076510000000000078e+00 7.498000000000000220e-01 3.046100000000000030e+00 2.070380000000000109e+00 3.146119999999999806e+00 4.598840000000000039e+00 2.676060000000000105e+00 5.876360000000000028e+00 3.143889999999999851e+00 3.674090000000000078e+00 6.336399999999999810e-01 4.613870000000000360e+00 4.433819999999999872e+00 3.320959999999999912e+00 -4.930999999999999966e-02 5.232450000000000045e+00 5.790549999999999642e+00 4.887889999999999624e+00 6.264639999999999986e+00 7.062100000000000044e-01 -2.834499999999999797e-01 7.166389999999999816e+00 3.295609999999999928e+00 1.519970000000000043e+00 7.986900000000000333e+00 5.570109999999999673e+00 4.650299999999999656e+00 9.364099999999999646e-01 8.028499999999999526e-01 -1.712599999999999956e-01 1.710739999999999927e+00 3.348300000000000054e+00 1.507949999999999902e+00 2.733200000000000074e+00 5.744200000000000195e+00 -5.283000000000000196e-02 3.549189999999999845e+00 7.629899999999999460e-01 1.468059999999999921e+00 4.485430000000000028e+00 3.329629999999999868e+00 3.056130000000000013e+00 5.245680000000000121e+00 5.890390000000000015e+00 1.661569999999999991e+00 6.259280000000000399e+00 6.788300000000000445e-01 3.136680000000000135e+00 7.090779999999999639e+00 3.092130000000000045e+00 -1.641250000000000098e+00 7.997189999999999799e+00 5.695509999999999629e+00 6.800000000000000488e-04 1.554200000000000026e-01 2.276400000000000090e-01 1.649980000000000002e+00 1.071110000000000007e+00 2.463350000000000151e+00 3.000340000000000007e+00 1.946560000000000068e+00 5.033870000000000289e+00 1.424469999999999903e+00 2.802779999999999827e+00 1.797199999999999909e-01 3.089770000000000127e+00 3.737369999999999859e+00 2.462229999999999919e+00 4.594509999999999650e+00 4.413339999999999819e+00 5.219120000000000203e+00 3.414410000000000167e+00 5.424769999999999648e+00 7.502000000000000335e-02 4.691010000000000346e+00 6.104510000000000325e+00 2.536760000000000126e+00 -2.830999999999999836e-02 6.978850000000000442e+00 5.224700000000000344e+00 1.447640000000000038e+00 8.058490000000000819e+00 1.228299999999999947e-01 4.410140000000000171e+00 1.061709999999999932e+00 2.605589999999999851e+00 -1.506599999999999884e-01 1.925580000000000069e+00 5.334360000000000213e+00 4.583309999999999995e+00 2.652620000000000200e+00 2.418399999999999994e-01 -1.936299999999999966e-01 3.476339999999999986e+00 2.705519999999999925e+00 1.484699999999999909e+00 4.441889999999999894e+00 5.232590000000000074e+00 2.048500000000000043e-01 5.389739999999999753e+00 2.591999999999999860e-02 1.536410000000000053e+00 6.280249999999999666e+00 2.635489999999999888e+00 2.970000000000000195e+00 6.903539999999999566e+00 5.347199999999999953e+00 -1.802159999999999984e+00 8.100089999999999790e+00 3.841509999999999980e+00
1.538180000000000103e+00 9.299300000000000344e-01 7.007499999999999840e-01 2.995379999999999932e+00 1.950870000000000104e+00 3.463909999999999823e+00 4.863489999999999647e+00 3.096989999999999910e+00 5.941449999999999676e+00 3.148810000000000109e+00 3.521370000000000111e+00 9.257999999999999563e-01 4.668859999999999566e+00 4.742119999999999891e+00 3.355739999999999945e+00 3.005900000000000238e-01 5.861869999999999692e+00 5.942779999999999951e+00 4.986620000000000275e+00 6.432280000000000442e+00 5.523900000000000476e-01 3.113799999999999901e-01 7.433209999999999873e+00 3.343570000000000153e+00 2.147689999999999877e+00 8.406969999999999388e+00 5.806110000000000326e+00 4.589760000000000062e+00 7.537199999999999456e-01 5.281000000000000139e-01 7.068000000000000671e-02 2.068810000000000038e+00 3.350389999999999979e+00 1.786229999999999984e+00 2.923680000000000057e+00 6.052749999999999631e+00 1.023400000000000004e-01 3.641950000000000021e+00 7.150699999999999834e-01 1.489959999999999951e+00 4.753790000000000404e+00 3.315449999999999786e+00 3.255570000000000075e+00 5.563229999999999897e+00 6.092859999999999943e+00 1.974359999999999893e+00 6.119780000000000442e+00 8.428700000000000081e-01 3.294329999999999981e+00 7.309479999999999755e+00 3.365029999999999966e+00 -9.357699999999999907e-01 8.544029999999999347e+00 5.915440000000000254e+00 4.952219999999999622e+00 3.044210000000000083e+00 7.749660000000000437e+00 1.575769999999999893e+00 1.229589999999999961e+00 2.593519999999999825e+00 1.992250000000000076e+00 1.017783000000000015e+01 5.352769999999999584e+00 1.557439999999999936e+00 2.798799999999999955e+00 6.705999999999999461e-02 3.065119999999999845e+00 3.888980000000000103e+00 2.886120000000000019e+00 4.892159999999999620e+00 4.793980000000000352e+00 5.355509999999999771e+00 3.356339999999999879e+00 5.214879999999999960e+00 4.052999999999999658e-02 4.750890000000000057e+00 6.344030000000000058e+00 2.477090000000000014e+00 5.460599999999999898e-01 7.469350000000000378e+00 5.264310000000000045e+00 1.720639999999999947e+00 8.138350000000000861e+00 1.573900000000000021e-01 4.134059999999999846e+00 9.846000000000000307e-01 2.451529999999999987e+00 1.821399999999999963e-01 2.174119999999999830e+00 5.348139999999999894e+00 4.618719999999999715e+00 2.713400000000000034e+00 2.687899999999999734e-01 2.143799999999999872e-01 3.711619999999999919e+00 2.509380000000000166e+00 1.692309999999999981e+00 4.664049999999999585e+00 5.438109999999999999e+00 4.047100000000000142e-01 5.537569999999999659e+00 1.232000000000000040e-01 1.763530000000000042e+00 6.441379999999999661e+00 2.740270000000000206e+00 3.266890000000000072e+00 7.278990000000000293e+00 5.235000000000000320e+00 -1.390540000000000109e+00 8.318870000000000431e+00 3.901339999999999808e+00
1.628479999999999928e+00 8.774800000000000377e-01 7.341100000000000403e-01 2.855750000000000011e+00 1.907499999999999973e+00 3.433269999999999822e+00 4.246480000000000032e+00 2.826769999999999783e+00 5.798300000000000232e+00 2.991569999999999840e+00 3.563509999999999955e+00 8.135700000000000154e-01 4.394110000000000404e+00 4.430220000000000269e+00 3.270840000000000192e+00 -3.169100000000000250e-01 5.341660000000000075e+00 5.812899999999999956e+00 4.791649999999999743e+00 6.267689999999999984e+00 5.455499999999999794e-01 -5.168999999999999984e-02 7.181879999999999598e+00 3.300559999999999938e+00 1.400970000000000049e+00 8.055979999999999919e+00 5.985839999999999606e+00 4.649210000000000065e+00 8.771200000000000108e-01 8.825800000000000312e-01 -9.596999999999999975e-02 1.755390000000000006e+00 3.260390000000000121e+00 1.355820000000000025e+00 2.754179999999999851e+00 5.928209999999999980e+00 -2.845999999999999919e-02 3.509180000000000188e+00 7.442499999999999671e-01 1.285260000000000069e+00 4.487820000000000142e+00 3.337730000000000086e+00 2.779389999999999805e+00 5.381249999999999645e+00 5.973499999999999588e+00 1.545390000000000041e+00 6.284670000000000201e+00 6.851599999999999913e-01 2.933969999999999967e+00 7.159760000000000346e+00 3.410620000000000207e+00 -1.684749999999999970e+00 8.010109999999999175e+00 5.761149999999999771e+00 3.749999999999999861e-02 1.668800000000000006e-01 5.838000000000000134e-02 1.506000000000000005e+00 1.153869999999999951e+00 2.445660000000000167e+00 1.238890000000000047e+00 9.849439999999999529e+00 5.229560000000000208e+00 1.528329999999999966e+00 2.752229999999999954e+00 1.663999999999999854e-02 2.869400000000000173e+00 3.733690000000000175e+00 2.651060000000000194e+00 4.244209999999999816e+00 4.625630000000000130e+00 5.164200000000000124e+00 3.204610000000000181e+00 5.396180000000000199e+00 9.814000000000000501e-02 4.608620000000000161e+00 6.067739999999999689e+00 2.347160000000000135e+00 -2.440000000000000155e-02 7.068839999999999790e+00 5.257439999999999891e+00 1.625129999999999963e+00 8.039930000000000021e+00 8.132999999999999952e-02 4.217209999999999681e+00 1.097650000000000015e+00 2.697599999999999998e+00 -2.050200000000000078e-01 2.005119999999999791e+00 5.484829999999999650e+00 4.615160000000000373e+00 2.637329999999999952e+00 2.941099999999999826e-01 -1.969200000000000117e-01 3.625849999999999795e+00 2.641929999999999890e+00 1.208460000000000090e+00 4.501960000000000406e+00 5.227120000000000211e+00 1.479100000000000137e-01 5.301289999999999836e+00 6.146000000000000074e-02 1.634149999999999991e+00 6.266300000000000203e+00 2.647850000000000037e+00 2.812059999999999782e+00 7.059309999999999974e+00 5.375020000000000131e+00 -1.715270000000000072e+00 7.942639999999999922e+00 3.976269999999999971e+00
1.584109999999999907e+00 9.317100000000000382e-01 6.363400000000000167e-01 3.083670000000000133e+00 2.007019999999999804e+00 3.260629999999999917e+00 4.714599999999999902e+00 2.694440000000000168e+00 5.902239999999999931e+00 3.022549999999999848e+00 3.901180000000000092e+00 6.291799999999999615e-01 4.756249999999999645e+00 4.471669999999999590e+00 3.275809999999999889e+00 -1.078899999999999998e-01 5.410359999999999836e+00 5.971680000000000099e+00 -1.290720000000000089e+00 6.495359999999999800e+00 8.093700000000000339e-01 -2.809300000000000130e-01 7.401720000000000077e+00 3.400119999999999809e+00 1.453379999999999894e+00 8.151479999999999393e+00 5.364869999999999806e+00 4.610459999999999781e+00 8.762999999999999678e-01 7.658500000000000307e-01 1.064299999999999968e-01 1.780869999999999953e+00 3.260229999999999961e+00 1.561530000000000085e+00 2.622129999999999850e+00 5.918490000000000251e+00 -2.335599999999999898e-01 3.520420000000000105e+00 8.109199999999999742e-01 1.435890000000000111e+00 4.591649999999999565e+00 3.305559999999999832e+00 3.181890000000000107e+00 5.304269999999999818e+00 5.995359999999999800e+00 1.738089999999999913e+00 6.365639999999999965e+00 4.132600000000000162e-01 3.113389999999999880e+00 7.247860000000000191e+00 3.406219999999999803e+00 -1.829039999999999999e+00 8.126709999999999212e+00 5.763370000000000104e+00 -1.779999999999999985e-02 1.224699999999999955e-01 1.670699999999999963e-01 1.742930000000000090e+00 9.953100000000000280e-01 2.589630000000000098e+00 1.506950000000000012e+00 9.939000000000000057e+00 5.166269999999999918e+00 1.518869999999999942e+00 2.780699999999999950e+00 1.077300000000000063e-01 3.054260000000000197e+00 3.870000000000000107e+00 2.591239999999999988e+00 4.768440000000000012e+00 4.545720000000000205e+00 5.194860000000000255e+00 1.775209999999999955e+00 8.475390000000000867e+00 7.509240000000000137e+00 4.637019999999999698e+00 6.181890000000000107e+00 2.600150000000000183e+00 -1.407299999999999940e-01 7.169810000000000016e+00 5.406970000000000276e+00 1.445119999999999960e+00 8.150669999999999860e+00 1.455899999999999972e-01 4.540280000000000094e+00 1.011490000000000000e+00 2.566559999999999953e+00 -1.205999999999999954e-02 2.013539999999999885e+00 5.347380000000000244e+00 4.451270000000000060e+00 2.676820000000000199e+00 1.226399999999999990e-01 9.429999999999999147e-03 3.670389999999999819e+00 2.633410000000000029e+00 1.604260000000000019e+00 4.499719999999999942e+00 5.352459999999999773e+00 3.495000000000000190e-02 5.350609999999999644e+00 1.460400000000000031e-01 1.379860000000000086e+00 6.266619999999999635e+00 2.617859999999999854e+00 2.976160000000000139e+00 7.098189999999999777e+00 5.378429999999999822e+00 -1.812340000000000062e+00 8.203129999999999811e+00 3.919900000000000162e+00