-1.016864999999999908e+00 4.943819999999999881e-01 1.674525999999999959e+00 -6.813620000000000232e-01 1.939972000000000030e+00 2.603509999999999991e-01 -1.202096999999999971e+00 -5.467629999999999990e-01 -7.626439999999999886e-01 9.811000000000000276e-03 -1.386765000000000025e+00 -5.652909999999999879e-01 3.036619999999999875e-01 -6.108170000000000543e-01 1.540910000000000002e+00 3.523510000000000253e-01 -9.904899999999999816e-02 -1.358743000000000034e+00 3.647549999999999959e-01 2.161200000000000065e-01 -7.518519999999999648e-01 2.681400000000000103e-02 4.578200000000000047e-01 1.142530000000000046e+00 1.884525999999999923e+00 -1.745197000000000109e+00 7.491799999999999571e-01 3.046639999999999904e-01 -4.182219999999999827e-01 -5.365220000000000544e-01 -3.149810000000000110e-01 1.741429999999999922e-01 -4.279029999999999778e-01 -4.273770000000000069e-01 1.094246000000000052e+00 7.438439999999999497e-01 2.327859999999999929e-01 9.257530000000000481e-01 -1.664180000000000104e-01 -6.002429999999999710e-01 2.690699999999999759e-01 1.845940000000000081e-01 -5.696759999999999602e-01 8.138570000000000526e-01 -1.139259999999999995e-01 -1.727930000000000021e-01 1.241160999999999959e+00 3.970400000000000040e-01 -1.837836999999999943e+00 -4.071159999999999779e-01 8.932520000000000460e-01 -4.142449999999999743e-01 -7.840099999999999847e-02 -1.059825000000000017e+00 6.982030000000000181e-01 5.795010000000000439e-01 1.318724999999999925e+00 1.088411000000000017e+00 -7.507549999999999502e-01 -2.373066999999999815e+00 -9.870120000000000005e-01 -5.228190000000000337e-01 1.523780000000000134e-01 -7.427219999999999933e-01 -9.439319999999999933e-01 2.657200000000000117e-01 1.442070000000000018e-01 -9.964659999999999629e-01 -4.247969999999999802e-01 1.202833999999999959e+00 -2.333649999999999891e-01 -2.921480000000000188e-01 -1.563839999999999952e-01 1.966670000000000085e-01 -3.684180000000000232e-01 8.599280000000000257e-01 1.244699000000000000e+00 1.097374999999999989e+00 -8.195569999999999800e-01 -1.043784999999999963e+00 -1.283841999999999928e+00 1.136328000000000005e+00 1.122093000000000007e+00 4.834999999999999715e-02 -5.687609999999999610e-01 -4.613610000000000211e-01 -1.093299999999999966e-01 3.019479999999999942e-01 -6.713059999999999583e-01 2.346380000000000132e-01 3.816919999999999757e-01 -1.319843000000000099e+00 1.021806999999999910e+00 4.268890000000000184e-01 1.310340000000000116e-01 5.543409999999999727e-01 -1.062246000000000024e+00 -3.361210000000000031e-01 4.002930000000000099e-01 -4.571450000000000236e-01 4.236570000000000058e-01 2.985050000000000203e-01 1.327089999999999936e-01 -9.495730000000000004e-01 -3.028052999999999884e+00 1.141974999999999962e+00 -2.110080000000000011e-01 1.117653000000000008e+00 1.473521999999999998e+00 5.410169999999999702e-01 -4.545629999999999948e-01 4.819479999999999875e-01 -2.923100000000000004e-02 -2.932330000000000214e-01 -3.774509999999999810e-01 -2.020079999999999931e-01 1.276010000000000089e+00 -1.586970000000000047e-01 -1.626935999999999938e+00 2.101865999999999790e+00 1.707319999999999949e-01 2.133549999999999891e-01 -1.213543000000000038e+00 -7.462159999999999904e-01 1.140759999999999996e+00 -7.310940000000000216e-01 -2.057950000000000057e-01 -1.360939999999999928e-01 3.069549999999999779e-01 -4.250999999999999571e-03 -9.123580000000000023e-01 -2.304510000000000058e+00 7.706000000000000349e-02 1.290335000000000010e+00 -1.438470000000000026e-01 4.087759999999999727e-01 6.311520000000000463e-01 1.892497000000000096e+00 -4.312150000000000150e-01 8.261810000000000542e-01 -1.358157000000000059e+00 7.860930000000000417e-01 4.351389999999999980e-01 -1.373800000000000021e-02 1.118915000000000104e+00 -1.111820000000000030e-01 2.210159999999999902e-01 -8.319550000000000001e-01 6.625480000000000258e-01 -6.628180000000000183e-01 6.717389999999999750e-01 -8.203030000000000044e-01 -7.947330000000000227e-01 8.013090000000000490e-01 1.477483000000000102e+00 2.042800000000000171e+00 -1.436810000000000032e-01 -1.059989000000000070e+00 5.290569999999999995e-01 1.217690000000000022e-01 5.812119999999999509e-01 -4.640670000000000073e-01 -2.175790999999999809e+00 -4.925959999999999783e-01 -4.091299999999999937e-01
-9.734199999999999520e-01 -5.082389999999999963e-01 9.127629999999999910e-01 -2.005770000000000053e-01 1.055107999999999935e+00 -6.988659999999999872e-01 -1.802950000000000108e-01 9.939550000000000329e-01 1.013000000000000012e-03 5.180369999999999697e-01 -1.767040000000000000e-01 1.148182999999999954e+00 -1.045306999999999986e+00 2.406799999999999912e-02 -1.446598000000000050e+00 3.735600000000000032e-02 -5.588400000000000312e-02 -4.856900000000000106e-02 1.630929999999999880e-01 -4.932900000000000063e-01 9.374350000000000183e-01 -1.267994000000000065e+00 1.119297999999999904e+00 4.368400000000000061e-02 -8.585230000000000361e-01 1.745495000000000019e+00 8.437449999999999672e-01 7.118050000000000210e-01 6.266359999999999708e-01 -2.683090000000000197e-01 1.120199999999999946e-01 4.064139999999999975e-01 4.944520000000000026e-01 -4.906650000000000178e-01 8.543450000000000211e-01 1.350149999999999961e-01 1.290543999999999913e+00 -5.586640000000000494e-01 -9.185499999999999776e-01 -4.020000000000000136e-04 4.916829999999999812e-01 -7.944149999999999823e-01 5.715900000000000425e-01 -1.962849000000000066e+00 -7.669800000000000229e-02 5.854559999999999764e-01 9.324029999999999818e-01 1.000002999999999975e+00 2.023181000000000118e+00 1.324869999999999937e-01 4.916100000000000331e-02 -1.321976000000000040e+00 4.994930000000000203e-01 6.375690000000000524e-01 4.924129999999999896e-01 5.637029999999999541e-01 9.049300000000000122e-01 -2.544399999999999995e-01 -9.478659999999999863e-01 4.294780000000000264e-01 -2.553369999999999806e-01 -8.189680000000000293e-01 -4.723700000000000121e-02 9.197490000000000387e-01 -2.780770000000000186e-01 -8.156060000000000532e-01 -7.907739999999999769e-01 5.068099999999999827e-01 1.528529999999999889e-01 5.557290000000000285e-01 1.114773000000000014e+00 -1.210574999999999957e+00 1.409624999999999906e+00 1.594030999999999976e+00 1.598000000000000115e-02 -8.336729999999999974e-01 -1.376060000000000061e-01 9.105280000000000040e-01 -1.119410999999999934e+00 -6.270010000000000305e-01 3.757119999999999904e-01 -1.963743999999999934e+00 -1.359410000000000063e-01 -4.281690000000000218e-01 -1.680109999999999937e-01 -8.943470000000000031e-01 1.566268999999999911e+00 3.920250000000000123e-01 1.407855000000000079e+00 1.172450000000000020e-01 -1.814530000000000032e-01 9.350100000000000078e-01 9.311129999999999685e-01 -1.009660000000000002e-01 2.682930999999999955e+00 1.483057000000000070e+00 4.853500000000000175e-02 2.021094000000000168e+00 -2.365079000000000153e+00 -1.205702000000000051e+00 8.001660000000000439e-01 -2.348796000000000106e+00 -1.679287999999999892e+00 -2.072559000000000040e+00 4.959379999999999900e-01 -1.087733000000000061e+00 -1.451843999999999912e+00 5.064659999999999718e-01 -3.774589999999999890e-01 -2.106214000000000031e+00 2.507798999999999889e+00 -5.337420000000000497e-01 -9.447140000000000537e-01 -1.520990000000000120e-01 1.282000000000000028e+00 1.578848000000000029e+00 -1.663465999999999889e+00 -9.222179999999999822e-01 -1.780059999999999976e-01 -1.192013999999999907e+00 -8.884589999999999987e-01 -1.254912000000000027e+00 -7.177299999999999791e-01 -1.480671000000000070e+00 4.546649999999999858e-01 7.633410000000000473e-01 -6.920000000000000153e-04 -4.730389999999999873e-01 -1.029549999999999965e+00 6.985670000000000490e-01 4.166759999999999908e-01 2.410861000000000143e+00 7.326489999999999947e-01 5.394999999999999796e-02 -1.802268999999999899e+00 2.004209999999999881e-01 -1.430687999999999960e+00 8.791160000000000085e-01 1.098298999999999914e+00 -6.976539999999999964e-01 9.566109999999999891e-01 3.147909999999999875e-01 8.643910000000000204e-01 9.901959999999999651e-01 -1.285474999999999923e+00 5.188799999999999663e-02 5.616839999999999611e-01 1.631717000000000084e+00 -1.869866999999999946e+00 1.041042000000000023e+00 1.818513999999999964e+00 5.849750000000000227e-01 -1.843884999999999996e+00 1.433956999999999926e+00 -7.874719999999999498e-01 -1.728593999999999964e+00 1.335920999999999914e+00 -1.442411000000000110e+00 -1.262736000000000081e+00 1.160663000000000000e+00 -2.387049000000000198e+00 -2.650049999999999906e-01 -7.025000000000000688e-02 1.787140000000000117e-01 -1.078430000000000000e+00
8.552950000000000275e-01 -5.659760000000000346e-01 1.038799000000000028e+00 5.014110000000000511e-01 1.580400000000000138e-01 6.987750000000000350e-01 7.358590000000000408e-01 -1.060691999999999968e+00 4.294890000000000096e-01 -3.535280000000000089e-01 -1.092052999999999940e+00 -7.781789999999999541e-01 1.196401000000000048e+00 -1.233084000000000069e+00 -1.736659999999999870e-01 -1.060157999999999934e+00 -4.068869999999999987e-01 -1.187931000000000070e+00 3.282740000000000102e-01 1.745019999999999905e-01 1.044151999999999969e+00 -1.109626999999999919e+00 -1.192722000000000060e+00 -8.818099999999999550e-02 5.534900000000000236e-02 2.347200000000000120e-01 4.594820000000000015e-01 9.348210000000000131e-01 -1.145888999999999935e+00 -4.476249999999999951e-01 6.564179999999999460e-01 -5.574660000000000171e-01 -6.502430000000000154e-01 3.158920000000000061e-01 4.198120000000000185e-01 -2.033270000000000077e-01 -5.003370000000000317e-01 3.240399999999999947e-01 -2.027279999999999915e-01 7.807220000000000271e-01 -1.026393000000000111e+00 9.543840000000000101e-01 6.203929999999999723e-01 -3.420400000000000107e-01 -1.910880000000000078e-01 -3.955330000000000235e-01 -1.082724000000000020e+00 1.478700000000000014e-01 1.690523999999999916e+00 -2.115090000000000026e-01 2.079120000000000135e-01 -2.566069999999999740e-01 -1.120489999999999958e-01 1.059525000000000050e+00 8.857110000000000261e-01 5.066859999999999697e-01 -2.607439999999999758e-01 6.337739999999999485e-01 -2.553139999999999854e-01 -7.330160000000000009e-01 -5.722129999999999717e-01 4.990530000000000244e-01 3.501349999999999740e-01 -5.364799999999999569e-01 -8.078750000000000098e-01 -7.929239999999999622e-01 4.564969999999999861e-01 1.325590000000000102e-01 -1.089066000000000090e+00 -1.040559999999999957e-01 4.817629999999999968e-01 4.135380000000000167e-01 6.927480000000000304e-01 -7.452849999999999753e-01 -6.483060000000000489e-01 -7.628249999999999753e-01 5.927499999999999991e-01 6.729519999999999946e-01 3.904420000000000113e-01 -2.216269999999999907e-01 7.262920000000000487e-01 -2.228604999999999947e+00 -7.956800000000000539e-01 -6.709659999999999513e-01 1.007630999999999943e+00 1.459861000000000075e+00 -7.567960000000000242e-01 9.790900000000000158e-01 1.157002000000000086e+00 -1.332413999999999987e+00 -9.336569999999999592e-01 1.083641999999999994e+00 5.816480000000000539e-01 -1.013031999999999933e+00 -7.458299999999999652e-02 -3.289420000000000122e-01 -3.992149999999999865e-01 -6.586729999999999530e-01 -5.195610000000000506e-01 1.184334999999999916e+00 6.989509999999999890e-01 -4.883540000000000103e-01 -9.663270000000000470e-01 -2.767780000000000240e-01 5.197439999999999838e-01 1.291563000000000017e+00 1.380030000000000090e+00 1.887645000000000017e+00 -1.556148000000000087e+00 -1.613000000000000067e-03 -9.809800000000000464e-02 -8.422290000000000054e-01 1.508760000000000101e+00 -8.204500000000000681e-02 -9.201299999999999757e-02 1.400444000000000022e+00 -9.034300000000000663e-02 -3.618239999999999790e-01 1.180187000000000097e+00 -3.595380000000000242e-01 -4.913910000000000222e-01 -9.212120000000000308e-01 1.084490000000000037e-01 7.724539999999999740e-01 -9.593730000000000313e-01 1.139019999999999921e+00 -7.438460000000000072e-01 -9.406900000000000261e-01 6.667399999999999993e-01 7.644469999999999876e-01 -6.332799999999999541e-02 -6.000940000000000163e-01 -1.384427999999999992e+00 -1.101167999999999925e+00 -7.396869999999999834e-01 9.147579999999999600e-01 7.764630000000000143e-01 -2.795830000000000259e-01 -8.605840000000000156e-01 7.219790000000000374e-01 -1.178628000000000009e+00 -1.514534000000000047e+00 6.205709999999999837e-01 1.198719000000000090e+00 7.058280000000000109e-01 -8.734530000000000349e-01 3.761360000000000259e-01 -8.376799999999999524e-02 2.005151999999999823e+00 1.561658999999999908e+00 8.437510000000000288e-01 1.491103000000000067e+00 -6.700000000000000400e-01 -3.523910000000000098e-01 5.208159999999999457e-01 -5.327349999999999586e-01 3.472469999999999724e-01 -6.765820000000000167e-01 7.042410000000000059e-01 -1.106074999999999919e+00 -7.378839999999999844e-01 -6.168099999999999972e-02 3.979599999999999804e-02 6.117129999999999512e-01 -7.108179999999999499e-01
8.324820000000000553e-01 -4.166300000000000003e-01 -3.301120000000000165e-01 -1.034960000000000102e+00 -3.391100000000000225e-01 7.242099999999999926e-02 -8.635859999999999648e-01 6.888969999999999816e-01 -9.903779999999999806e-01 -1.055469999999999908e+00 -4.202600000000000224e-01 2.146569999999999867e-01 6.482930000000000081e-01 -9.853499999999999759e-02 7.753480000000000372e-01 6.660110000000000197e-01 6.236800000000000122e-01 -2.144780000000000020e-01 7.110370000000000301e-01 -1.191019000000000050e+00 1.045069000000000026e+00 -9.875420000000000309e-01 5.529300000000000326e-01 2.343379999999999908e-01 -1.368122000000000060e+00 -1.733619999999999883e-01 -1.395891999999999911e+00 -7.469470000000000276e-01 -1.144065000000000110e+00 1.353224999999999900e+00 -1.113890000000000019e-01 9.060359999999999525e-01 5.033300000000000274e-02 -5.166999999999999718e-03 1.631829999999999947e-01 -8.095339999999999758e-01 4.735199999999999965e-01 9.262909999999999755e-01 -4.116529999999999911e-01 1.624560000000000004e+00 -1.564392000000000005e+00 1.337903999999999982e+00 -1.031910000000000049e-01 1.296599999999999975e-01 -6.777999999999999581e-01 7.896379999999999511e-01 5.087890000000000468e-01 3.946310000000000096e-01 2.311002999999999918e+00 1.815409999999999968e+00 2.029792000000000041e+00 1.420329999999999926e-01 -4.274000000000000021e-03 -1.393270000000000064e-01 -2.231130000000000058e-01 -3.226100000000000079e-01 2.300780000000000047e-01 -1.244887999999999995e+00 1.173208999999999946e+00 1.299119999999999997e-01 4.002970000000000139e-01 1.035684000000000049e+00 -9.157149999999999457e-01 5.324809999999999821e-01 -1.084389999999999937e-01 -1.316249999999999920e-01 3.874819999999999931e-01 -1.214577999999999935e+00 -4.058309999999999973e-01 9.091399999999999482e-02 8.465780000000000527e-01 -2.029890000000000028e-01 -2.054549999999999987e-01 -1.150177999999999923e+00 1.884006999999999987e+00 1.107324999999999893e+00 2.121528000000000080e+00 -1.527700999999999976e+00 4.368299999999999961e-01 -1.112400999999999973e+00 -1.100872999999999990e+00 -2.785165999999999809e+00 -7.440940000000000332e-01 -2.194280000000000119e-01 -1.172257000000000104e+00 -6.839790000000000036e-01 -1.197594999999999965e+00 -1.042890000000000095e+00 -1.834561000000000108e+00 -2.089699999999999891e-01 1.471303999999999945e+00 1.346826999999999996e+00 -7.076909999999999590e-01 -5.038719999999999866e-01 1.119736000000000065e+00 -1.137297999999999920e+00 -9.834199999999999886e-02 1.534369999999999901e-01 3.441219999999999835e-01 7.434629999999999850e-01 -2.446679999999999966e-01 3.581889999999999796e-01 7.083319999999999617e-01 -1.039379999999999971e+00 1.467710999999999988e+00 6.708830000000000071e-01 -1.575171000000000099e+00 -1.968080000000000052e+00 8.581109999999999571e-01 -5.122100000000000541e-01 3.658299999999999885e-01 -8.876060000000000061e-01 -9.929050000000000376e-01 2.471934000000000076e+00 1.084886000000000017e+00 -1.818819999999999881e-01 -2.987920000000000020e-01 1.716050000000000075e-01 1.711138000000000048e+00 1.627460000000000018e-01 -1.030129999999999935e-01 9.666130000000000555e-01 6.514200000000000546e-02 -2.586357000000000017e+00 6.648030000000000328e-01 -1.433648000000000033e+00 4.584030000000000049e-01 1.026723999999999970e+00 1.265739999999999921e-01 2.004299999999999971e-01 -9.099799999999999556e-02 3.370310000000000250e-01 1.090354999999999963e+00 -1.256116999999999928e+00 5.505379999999999718e-01 1.094389999999999946e-01 -1.004609999999999947e-01 -3.619939999999999825e-01 -4.492120000000000002e-01 -8.671780000000000044e-01 -3.758889999999999731e-01 -1.619869999999999921e-01 4.955869999999999997e-01 6.054500000000000437e-01 -8.385580000000000256e-01 -1.224485000000000046e+00 -2.832000000000000142e-02 5.532920000000000060e-01 2.257003000000000092e+00 5.967339999999999867e-01 -6.643759999999999666e-01 1.581039999999999945e-01 -3.694029999999999814e-01 -5.812200000000000005e-02 -4.858500000000000041e-01 4.358560000000000212e-01 2.813910000000000022e-01 9.436620000000000008e-01 -5.857729999999999881e-01 5.825000000000000316e-02 -1.575984999999999969e+00 -2.547130000000000227e-01 -3.124629999999999908e-01 3.342669999999999808e-01 7.619259999999999922e-01
-5.793719999999999981e-01 -2.099040000000000072e-01 1.064225999999999894e+00 1.417009999999999936e-01 -3.550079999999999902e-01 1.035597000000000101e+00 1.213788000000000089e+00 -1.554076999999999931e+00 -4.479980000000000073e-01 -1.155758000000000063e+00 -2.797000000000000007e-03 6.532719999999999638e-01 1.246517000000000097e+00 -2.659489999999999910e-01 -4.873549999999999827e-01 -2.086651999999999951e+00 -9.482669999999999710e-01 -4.449710000000000054e-01 1.514167999999999958e+00 -4.553860000000000130e-01 6.015840000000000076e-01 -9.163189999999999946e-01 -3.086119999999999974e-01 -1.164533999999999958e+00 9.183649999999999869e-01 1.568521999999999972e+00 3.883539999999999770e-01 -1.257392000000000065e+00 -4.789089999999999736e-01 -3.082790999999999837e+00 -4.525449999999999751e-01 2.359284999999999854e+00 -3.714459999999999984e-01 1.853200000000000125e-01 -8.082080000000000375e-01 1.088152000000000008e+00 -5.549990000000000201e-01 1.203470999999999957e+00 1.305943999999999994e+00 1.503806999999999894e+00 7.536479999999999846e-01 6.752749999999999586e-01 2.825500000000000234e-01 2.314899999999999944e-02 -2.202700000000000144e-02 -5.039160000000000306e-01 1.538124999999999964e+00 -7.150379999999999514e-01 -3.122784999999999922e+00 8.437320000000000375e-01 8.970939999999999470e-01 -1.321900000000000075e+00 -2.481579999999999897e-01 -1.265865000000000018e+00 -1.536099999999999965e-02 -1.696431999999999940e+00 1.998969999999999914e-01 9.314360000000000417e-01 7.200640000000000374e-01 1.089166000000000079e+00 -7.106590000000000407e-01 2.211700000000000055e-01 -4.285599999999999965e-01 7.201940000000000008e-01 -7.139450000000000518e-01 -1.101340999999999903e+00 -1.341493999999999964e+00 8.509219999999999562e-01 6.055810000000000359e-01 1.180870000000000086e+00 4.352079999999999838e-01 3.988680000000000003e-01 -1.429758000000000084e+00 -2.347644999999999982e+00 7.556040000000000534e-01 4.680710000000000148e-01 -2.784960000000000213e-01 -8.686800000000000077e-02 5.899100000000000177e-02 1.960600000000000120e-01 1.260999999999999968e-03 -1.276620000000000088e+00 -5.944080000000000474e-01 2.480020000000000113e+00 -5.767689999999999761e-01 1.860206000000000026e+00 -1.306577000000000099e+00 5.517030000000000545e-01 -1.423178999999999972e+00 1.745400000000000007e-01 1.162469999999999892e+00 8.921120000000000161e-01 -7.688260000000000094e-01 3.729870000000000130e-01 -6.246490000000000098e-01 -1.267830000000000013e+00 4.760710000000000219e-01 -1.466310000000000002e+00 -7.022960000000000313e-01 1.951635000000000009e+00 -1.420260999999999996e+00 9.891389999999999905e-01 8.634779999999999678e-01 2.276950000000000085e-01 -2.282899999999999860e-02 -1.127900000000000083e-02 1.101720000000000060e-01 2.286539999999999961e-01 4.479020000000000223e-01 1.281500000000000083e+00 1.542332999999999954e+00 -1.377726999999999924e+00 -7.805060000000000331e-01 -7.010669999999999957e-01 1.193209999999999965e-01 -8.034930000000000128e-01 9.476670000000000371e-01 1.220200000000000035e-01 3.100330000000000030e-01 7.214199999999999502e-01 -5.485659999999999981e-01 3.116160000000000041e-01 1.650540000000000063e-01 1.252221000000000029e+00 -1.739989000000000008e+00 1.528354999999999908e+00 -1.628587999999999925e+00 -3.599310000000000009e-01 -6.898320000000000007e-01 2.215660999999999881e+00 9.210030000000000161e-01 -1.572969999999999924e-01 6.419540000000000246e-01 2.248476999999999837e+00 -3.754500000000000198e-02 2.982779999999999876e-01 8.940129999999999466e-01 -2.916159999999999863e-01 1.068349999999999994e-01 -2.510240000000000249e-01 -1.827963000000000005e+00 -3.768690000000000095e-01 7.546410000000000062e-01 7.553250000000000242e-01 -4.977489999999999970e-01 4.585199999999999693e-02 7.015489999999999782e-01 -4.365990000000000149e-01 -2.134446000000000065e+00 -1.147346999999999895e+00 -2.206800000000000081e-02 -1.844089999999999896e-01 2.734420000000000184e-01 7.745079999999999742e-01 -1.114710000000000090e+00 4.152779999999999805e-01 -9.267699999999999549e-02 -1.815100000000000047e-02 -3.601210000000000244e-01 2.958129999999999926e-01 5.861459999999999448e-01 -7.844600000000000184e-02 2.757890000000000064e-01 2.430441000000000074e+00 -2.704263999999999779e+00
9.401979999999999782e-01 -2.304309999999999969e-01 7.360780000000000101e-01 2.284789999999999877e-01 -4.774160000000000070e-01 1.464719999999999911e-01 1.034982000000000069e+00 1.013600000000000056e+00 -6.200529999999999653e-01 -8.042000000000000537e-02 4.005329999999999724e-01 1.591512999999999955e+00 -5.360549999999999482e-01 1.384546999999999972e+00 9.258699999999999708e-01 5.673059999999999770e-01 -9.970740000000000158e-01 -9.350000000000000533e-01 -5.438799999999999885e-02 1.631345999999999963e+00 4.139920000000000266e-01 -5.838800000000000240e-02 -3.994570000000000065e-01 -2.608650000000000135e-01 6.209489999999999732e-01 1.666552999999999951e+00 6.647819999999999840e-01 6.953399999999999859e-02 1.401661999999999964e+00 1.386501999999999901e+00 1.926306999999999992e+00 -1.582379999999999898e+00 3.765689999999999871e-01 -4.970490000000000186e-01 -1.536326999999999998e+00 1.288059000000000065e+00 -1.047180999999999917e+00 -8.420609999999999484e-01 -1.232490000000000085e+00 -1.047006000000000103e+00 -8.670299999999999674e-01 4.243850000000000122e-01 -9.801450000000000440e-01 -1.159685999999999995e+00 1.138400000000000002e-02 3.956509999999999749e-01 -3.136780000000000124e-01 7.439670000000000449e-01 2.248873999999999818e+00 -1.028167000000000053e+00 3.296979999999999911e-01 8.372199999999999642e-01 -9.020890000000000297e-01 2.958810000000000051e-01 5.487859999999999960e-01 -9.522650000000000281e-01 -4.492929999999999979e-01 -5.194469999999999921e-01 1.042099999999999971e-02 -1.429443999999999937e+00 -1.022290000000000004e-01 1.007911000000000001e+00 3.295259999999999856e-01 -8.602560000000000207e-01 9.484489999999999865e-01 7.754959999999999631e-01 5.460319999999999618e-01 -6.162959999999999550e-01 -8.128870000000000262e-01 2.008719999999999950e-01 -2.131180000000000019e-01 1.385520000000000085e-01 -3.119660000000000211e-01 -1.890328000000000008e+00 -2.532249999999999779e-01 1.128390000000000004e+00 1.628122000000000069e+00 1.109909000000000034e+00 1.249983999999999984e+00 9.125900000000000678e-02 -3.632870000000000266e-01 -7.038940000000000197e-01 5.287009999999999765e-01 -3.330799999999999733e-02 -7.864870000000000472e-01 -1.235619999999999941e+00 1.401753999999999944e+00 -1.245819000000000010e+00 -4.970450000000000146e-01 -1.464920999999999918e+00 -9.163499999999999424e-02 -1.137189000000000005e+00 -9.755800000000000027e-01 2.327089999999999992e-01 -1.412206999999999990e+00 1.651253000000000082e+00 3.295310000000000183e-01 1.638565999999999967e+00 2.278159999999999907e-01 4.652649999999999841e-01 -8.010749999999999815e-01 -2.068821999999999939e+00 -1.071584000000000092e+00 2.111466000000000065e+00 -2.192989999999999939e-01 -9.692939999999999889e-01 1.737595000000000001e+00 -1.278896000000000033e+00 -1.751884999999999915e+00 -9.560000000000000355e-04 -8.760499999999999954e-01 -6.765699999999999492e-02 1.206558999999999937e+00 2.155399000000000065e+00 -9.699729999999999741e-01 3.198810000000000264e-01 -1.351515000000000022e+00 -8.717749999999999666e-01 2.396540000000000059e-01 -1.334338000000000024e+00 1.093129999999999935e-01 9.941159999999999997e-01 -1.029960000000000042e-01 9.841259999999999453e-01 1.193530000000000008e-01 -8.018300000000000427e-02 4.709180000000000033e-01 -7.196439999999999504e-01 -6.323490000000000499e-01 3.521690000000000098e-01 -3.265710000000000002e-01 -9.564329999999999776e-01 4.871730000000000227e-01 6.475899999999999712e-02 -1.078980000000000050e+00 8.677629999999999511e-01 -1.036219000000000001e+00 5.359709999999999752e-01 -1.433572999999999986e+00 2.043329999999999869e-01 -1.009171000000000040e+00 3.771909999999999985e-01 -7.825140000000000429e-01 -2.248779999999999946e-01 1.992749000000000104e+00 -6.091710000000000180e-01 1.574799999999999978e+00 -5.241029999999999855e-01 1.499413000000000107e+00 5.020270000000000010e-01 -3.576139999999999874e-01 1.800305999999999962e+00 -2.178977000000000164e+00 -1.935308999999999946e+00 -1.575039000000000078e+00 9.766409999999999814e-01 -3.846649999999999792e-01 1.613739999999999897e-01 9.831550000000000011e-01 -1.531952999999999898e+00 3.981339999999999879e-01 -1.247616999999999976e+00 1.579277000000000042e+00 -6.756099999999999606e-02 1.773406999999999956e+00
3.404900000000000149e-01 -5.337210000000000010e-01 -2.904390000000000027e-01 -9.907040000000000290e-01 4.594800000000000273e-02 4.732000000000000095e-02 2.147209999999999952e-01 9.037070000000000380e-01 6.289639999999999675e-01 7.763710000000000333e-01 -4.156790000000000207e-01 6.996839999999999726e-01 3.489680000000000004e-01 1.436568000000000067e+00 8.266539999999999999e-01 -1.501103000000000076e+00 -1.099361999999999950e+00 7.955010000000000137e-01 -4.294390000000000152e-01 -1.048313000000000050e+00 -4.041100000000000247e-02 -9.758799999999999419e-02 5.129920000000000035e-01 -1.226663000000000059e+00 -6.746980000000000199e-01 8.311399999999999899e-01 8.527500000000000080e-01 1.974829999999999919e-01 -1.452900000000000025e-02 -2.105167999999999928e+00 1.131715000000000027e+00 -3.719640000000000168e-01 -1.655320000000000125e-01 7.303030000000000355e-01 -3.754950000000000232e-01 5.692180000000000017e-01 -4.463799999999999990e-01 1.358189999999999953e-01 -9.966760000000000064e-01 6.798910000000000231e-01 7.296300000000000008e-02 8.779099999999999404e-02 2.328079999999999872e-01 -5.293470000000000120e-01 2.255689999999999917e-01 9.315109999999999779e-01 7.315310000000000423e-01 1.400949999999999973e-01 -1.403815999999999953e+00 -6.820270000000000499e-01 1.145510000000000000e-01 1.045749000000000040e+00 -1.802680000000000116e-01 1.235136999999999929e+00 9.774700000000000055e-02 1.070580000000000004e-01 -2.778189999999999826e-01 -1.064832000000000001e+00 8.616620000000000390e-01 7.712679999999999536e-01 -1.379779999999999895e-01 8.828139999999999876e-01 5.251630000000000464e-01 -8.866840000000000277e-01 4.052720000000000211e-01 -1.448200000000000043e-01 9.857519999999999616e-01 -7.003329999999999833e-01 3.893999999999999892e-03 -4.327039999999999775e-01 2.054149999999999865e-01 -7.769669999999999632e-01 1.395669999999999966e-01 -6.379280000000000506e-01 5.232360000000000344e-01 1.030497999999999914e+00 4.203020000000000089e-01 1.524210000000000009e-01 -5.763089999999999602e-01 2.038540000000000074e-01 -1.276609999999999967e-01 3.560470000000000024e-01 1.577617000000000047e+00 1.572139999999999926e-01 -8.133420000000000094e-01 -1.135420000000000040e-01 7.918570000000000331e-01 8.536499999999999644e-02 6.762399999999999523e-01 8.086309999999999887e-01 -9.758080000000000087e-01 -4.494040000000000257e-01 6.274399999999999977e-01 4.274569999999999759e-01 4.206230000000000246e-01 1.962629999999999930e-01 -1.428997999999999990e+00 5.635679999999999579e-01 8.799519999999999564e-01 -1.102322999999999942e+00 1.907020000000000104e-01 -4.157589999999999897e-01 -1.712100000000000080e-02 -6.888819999999999943e-01 3.697829999999999728e-01 -1.699465999999999921e+00 3.527770000000000072e-01 -6.003800000000000109e-02 -5.161970000000000169e-01 9.194390000000000063e-01 1.087342999999999948e+00 1.468758000000000008e+00 1.913019999999999998e-01 -8.457320000000000393e-01 -6.513099999999999445e-02 -6.158320000000000460e-01 -6.296859999999999680e-01 4.201480000000000214e-01 -6.964599999999999957e-02 -1.038102000000000080e+00 3.766229999999999856e-01 -2.642462999999999784e+00 -1.127088000000000090e+00 5.165729999999999489e-01 -1.583587000000000078e+00 1.146390000000000048e-01 1.764477999999999991e+00 -8.272599999999999953e-01 -7.053299999999999847e-02 7.092650000000000343e-01 6.222900000000000098e-01 -1.298972000000000016e+00 1.089034000000000058e+00 7.770709999999999562e-01 6.831180000000000030e-01 1.596259999999999901e-01 -2.741709999999999980e-01 -4.074309999999999876e-01 -6.492019999999999458e-01 2.212949999999999917e-01 -9.425369999999999582e-01 5.344010000000000149e-01 -8.295099999999999696e-01 -3.734259999999999802e-01 -2.110219999999999874e-01 8.557709999999999484e-01 6.482769999999999921e-01 4.137099999999999805e-02 -6.089480000000000448e-01 -5.604019999999999557e-01 -4.635589999999999988e-01 2.244210000000000094e-01 9.496780000000000221e-01 -5.039230000000000098e-01 -7.370000000000000249e-04 -4.410189999999999944e-01 3.693219999999999836e-01 2.290689999999999948e-01 -4.036319999999999908e-01 5.636689999999999756e-01 -5.832389999999999519e-01 -6.602770000000000028e-01 -6.773850000000000149e-01 2.969600000000000017e-01 -8.662300000000000555e-02