6.546493746000000336e+00 0.000000000000000000e+00 0.000000000000000000e+00 1.618282243999999981e+00 8.556511414999999232e+00 0.000000000000000000e+00 -1.388799500000000020e-02 -4.656799799999999934e-02 8.502149476999999678e+00
6.566322064999999597e+00 0.000000000000000000e+00 0.000000000000000000e+00 -4.946312097999999935e+00 8.445038511999999997e+00 0.000000000000000000e+00 2.588032000000000093e-03 2.818906999999999836e-03 8.338493915999999118e+00
6.564719600000000099e+00 0.000000000000000000e+00 0.000000000000000000e+00 1.626516560000000000e+00 8.519210011000000193e+00 0.000000000000000000e+00 6.168878000000000035e-03 7.064459200000000605e-02 8.346326728999999389e+00
6.559484312000000372e+00 0.000000000000000000e+00 0.000000000000000000e+00 1.646189029999999942e+00 8.512957026000000482e+00 0.000000000000000000e+00 1.372369399999999982e-02 -7.340055900000000411e-02 8.369281876000000508e+00
6.563419477000000057e+00 0.000000000000000000e+00 0.000000000000000000e+00 1.727783588999999953e+00 8.581152780000000035e+00 0.000000000000000000e+00 1.091413000000000062e-03 -7.314924400000000215e-02 8.225478853000000257e+00
6.546477035999999750e+00 0.000000000000000000e+00 0.000000000000000000e+00 1.701674085999999919e+00 8.538741033999999175e+00 0.000000000000000000e+00 9.800944000000000669e-03 -8.844694000000000167e-03 8.247883117000000652e+00
6.550524474999999569e+00 0.000000000000000000e+00 0.000000000000000000e+00 -4.928168588000000128e+00 8.461345490999999441e+00 0.000000000000000000e+00 -6.246721999999999692e-03 -1.837331899999999907e-02 8.187363056000000583e+00
6.566944324999999694e+00 0.000000000000000000e+00 0.000000000000000000e+00 1.762005722999999913e+00 8.599318671000000691e+00 0.000000000000000000e+00 -1.719210599999999867e-02 -1.586722799999999989e-01 8.191163059000000857e+00
6.524955829999999679e+00 0.000000000000000000e+00 0.000000000000000000e+00 1.615646986000000007e+00 8.502159846999999715e+00 0.000000000000000000e+00 6.027353500000000308e-02 3.957444200000000134e-02 8.388836790999999238e+00
6.454965179000000219e+00 0.000000000000000000e+00 0.000000000000000000e+00 1.509560628000000015e+00 8.487967609000000024e+00 0.000000000000000000e+00 -6.028822200000000242e-02 5.841224700000000047e-02 8.642268221000000139e+00
6.535407851000000434e+00 0.000000000000000000e+00 0.000000000000000000e+00 1.766775087999999938e+00 8.565556837000000812e+00 0.000000000000000000e+00 -2.254138799999999901e-02 -1.705778679999999936e-01 8.192500311999999951e+00
6.582833321999999932e+00 0.000000000000000000e+00 0.000000000000000000e+00 1.574232191999999975e+00 8.524743116999999870e+00 0.000000000000000000e+00 -7.931414000000000519e-02 1.021702689999999941e-01 8.676952278999999990e+00
6.458465791000000067e+00 0.000000000000000000e+00 0.000000000000000000e+00 1.564410579000000023e+00 8.480075955000000221e+00 0.000000000000000000e+00 1.061063619999999957e-01 7.993169699999999600e-02 8.528118315000000393e+00
6.588384034999999805e+00 0.000000000000000000e+00 0.000000000000000000e+00 1.553492582999999927e+00 8.498849127999999808e+00 0.000000000000000000e+00 -1.289048299999999946e-02 3.807413800000000043e-02 8.391713103000000729e+00
6.422158373000000253e+00 0.000000000000000000e+00 0.000000000000000000e+00 1.522671663999999980e+00 8.268047700000000333e+00 0.000000000000000000e+00 -7.720637299999999481e-02 9.520993399999999607e-02 9.157676825999999437e+00
6.457629272000000142e+00 0.000000000000000000e+00 0.000000000000000000e+00 1.624104830000000055e+00 8.348897830000000297e+00 0.000000000000000000e+00 -1.299460099999999972e-02 1.144342119999999935e-01 8.228665721000000488e+00
6.534342987999999686e+00 0.000000000000000000e+00 0.000000000000000000e+00 1.587161320999999958e+00 8.626415720000000675e+00 0.000000000000000000e+00 7.868757399999999624e-02 5.081384199999999796e-02 8.586357080999999170e+00
6.140346496000000265e+00 0.000000000000000000e+00 0.000000000000000000e+00 1.580362575999999963e+00 8.066159629999999581e+00 0.000000000000000000e+00 1.964106499999999922e-02 -1.373520200000000017e-02 1.008136662999999977e+01
6.491325578999999735e+00 0.000000000000000000e+00 0.000000000000000000e+00 1.640169224999999953e+00 8.474574244999999451e+00 0.000000000000000000e+00 -4.937250099999999919e-02 1.306460199999999981e-02 8.467366927000000487e+00
6.468564225999999806e+00 0.000000000000000000e+00 0.000000000000000000e+00 1.631498034999999902e+00 8.391383221999999975e+00 0.000000000000000000e+00 5.012243100000000201e-02 -9.213387700000000291e-02 8.161740633999999162e+00
6.085397826000000343e+00 0.000000000000000000e+00 0.000000000000000000e+00 1.588663001000000019e+00 7.998373801999999699e+00 0.000000000000000000e+00 4.740823100000000206e-02 -5.771173699999999906e-02 1.020969025800000018e+01
6.475169129000000190e+00 0.000000000000000000e+00 0.000000000000000000e+00 1.605510242999999893e+00 8.355011218999999656e+00 0.000000000000000000e+00 5.912179900000000266e-02 -4.543772399999999878e-02 8.172953661999999397e+00
6.507710778999999945e+00 0.000000000000000000e+00 0.000000000000000000e+00 1.622576205999999965e+00 8.442190517000000227e+00 0.000000000000000000e+00 -2.155463000000000170e-02 9.304490999999999803e-03 8.302642646000000681e+00
6.505577609999999567e+00 0.000000000000000000e+00 0.000000000000000000e+00 1.522342155999999891e+00 8.354151191999999782e+00 0.000000000000000000e+00 -6.693354399999999760e-02 7.222639899999999669e-02 8.604041009999999545e+00
6.556065753000000385e+00 0.000000000000000000e+00 0.000000000000000000e+00 1.610563868999999926e+00 8.608487074999999322e+00 0.000000000000000000e+00 2.214792200000000044e-02 -1.760972400000000021e-02 8.566011199000000076e+00
6.464192287999999564e+00 0.000000000000000000e+00 0.000000000000000000e+00 1.606956947000000024e+00 8.447284318999999542e+00 0.000000000000000000e+00 -7.859178299999999839e-02 1.177991919999999970e-01 8.188740182000000090e+00
6.616021725999999603e+00 0.000000000000000000e+00 0.000000000000000000e+00 1.646942493999999924e+00 8.495265299999999797e+00 0.000000000000000000e+00 -7.941363899999999421e-02 3.960403299999999682e-02 8.723058152000000121e+00
6.315056032000000208e+00 0.000000000000000000e+00 0.000000000000000000e+00 1.554709445000000079e+00 8.213241717000000719e+00 0.000000000000000000e+00 -4.143631300000000239e-02 6.100351200000000279e-02 9.635424470000000241e+00
6.598683085000000226e+00 0.000000000000000000e+00 0.000000000000000000e+00 1.689550764000000038e+00 8.465024591000000598e+00 0.000000000000000000e+00 1.205694429999999984e-01 -9.442925000000000624e-02 8.181490505999999385e+00
6.669032409999999800e+00 0.000000000000000000e+00 0.000000000000000000e+00 1.653854114999999902e+00 8.573560301000000550e+00 0.000000000000000000e+00 -1.149561600000000017e-01 8.705879999999999175e-03 8.434204753999999582e+00
6.593408557000000059e+00 0.000000000000000000e+00 0.000000000000000000e+00 1.596777327999999940e+00 8.631410140999999925e+00 0.000000000000000000e+00 5.468899700000000308e-02 -5.745613900000000329e-02 8.125035978999999742e+00
6.219640413999999673e+00 0.000000000000000000e+00 0.000000000000000000e+00 1.560406686999999959e+00 8.147835351999999531e+00 0.000000000000000000e+00 -7.214390999999999686e-03 3.039554599999999898e-02 9.884006976000000222e+00
6.607563090000000194e+00 0.000000000000000000e+00 0.000000000000000000e+00 1.566365746000000003e+00 8.561895004000000142e+00 0.000000000000000000e+00 2.339292999999999928e-02 1.971796899999999839e-02 8.306145309999999782e+00
6.505864995999999678e+00 0.000000000000000000e+00 0.000000000000000000e+00 1.787871160999999987e+00 8.463038710999999381e+00 0.000000000000000000e+00 -2.836582600000000023e-02 -1.480675029999999892e-01 8.275198512999999423e+00
6.552447507000000115e+00 0.000000000000000000e+00 0.000000000000000000e+00 1.714170983999999898e+00 8.339294494000000668e+00 0.000000000000000000e+00 -7.874542999999999474e-03 2.109127189999999985e-01 8.550219645000000313e+00
6.460389567000000000e+00 0.000000000000000000e+00 0.000000000000000000e+00 1.509118092000000022e+00 8.299531108000000046e+00 0.000000000000000000e+00 -7.804591399999999402e-02 8.867272499999999391e-02 8.733167551999999390e+00
6.451579955999999783e+00 0.000000000000000000e+00 0.000000000000000000e+00 1.590664845000000049e+00 8.402554781999999278e+00 0.000000000000000000e+00 9.882899999999999584e-04 7.516696400000000278e-02 8.491553780000000273e+00
6.385070062999999685e+00 0.000000000000000000e+00 0.000000000000000000e+00 1.535923624000000043e+00 8.255984992000000133e+00 0.000000000000000000e+00 -6.264139800000000091e-02 8.626099900000000487e-02 9.400547008000000204e+00
6.574609201000000347e+00 0.000000000000000000e+00 0.000000000000000000e+00 -4.920570281999999906e+00 8.577688688000000283e+00 0.000000000000000000e+00 1.284893000000000059e-03 -1.372766000000000090e-03 8.269446614999999667e+00
6.507423698000000201e+00 0.000000000000000000e+00 0.000000000000000000e+00 1.659638353000000066e+00 8.530953281000000388e+00 0.000000000000000000e+00 -1.186751340000000016e-01 -1.007926180000000005e-01 8.508281565000000768e+00
6.522910848000000428e+00 0.000000000000000000e+00 0.000000000000000000e+00 1.682012430999999975e+00 8.459589625999999640e+00 0.000000000000000000e+00 -2.384834099999999860e-02 -3.370694600000000152e-02 8.221568711999999834e+00
6.538095984999999999e+00 0.000000000000000000e+00 0.000000000000000000e+00 -4.913093755000000229e+00 8.425610941000000409e+00 0.000000000000000000e+00 1.163065700000000084e-02 9.225996000000000197e-02 8.335403703000000775e+00
6.528845711999999857e+00 0.000000000000000000e+00 0.000000000000000000e+00 1.642994134999999911e+00 8.485591273000000712e+00 0.000000000000000000e+00 -6.415519699999999714e-02 -7.428707900000000586e-02 8.392785969000000179e+00
6.548378130999999769e+00 0.000000000000000000e+00 0.000000000000000000e+00 1.666248447000000077e+00 8.643538703000000822e+00 0.000000000000000000e+00 6.123471800000000048e-02 -9.456795199999999679e-02 8.581355587999999202e+00
6.573340858999999980e+00 0.000000000000000000e+00 0.000000000000000000e+00 -4.930488478000000008e+00 8.538924453999999997e+00 0.000000000000000000e+00 1.297900899999999969e-02 7.686018299999999859e-02 8.292284111000000735e+00
