-3.694915664900000252e+02
-3.715869197399999848e+02
-3.692459706800000276e+02
-3.688385200899999745e+02
-3.720477293499999973e+02
-3.698641667499999812e+02
-3.721032084199999872e+02
-3.704837063499999772e+02
-3.691170221200000015e+02
-3.691187659000000281e+02
-3.700608464900000172e+02
-3.679548224299999788e+02
-3.685959647199999836e+02
-3.687213139300000080e+02
-3.700553385599999956e+02
-3.718226555900000108e+02
-3.688369528700000046e+02
-3.715173547100000064e+02
-3.715646461200000203e+02
-3.728935422900000276e+02
-3.679229857899999843e+02
-3.707498481499999912e+02
-3.726304805199999919e+02
-3.690441728199999716e+02
-3.692956168100000127e+02
-3.715859319900000060e+02
-3.681906557699999780e+02
-3.688423797099999888e+02
-3.722370932300000277e+02
-3.690266204299999799e+02
-3.700635435400000119e+02
-3.715730441100000121e+02
-3.707846567099999788e+02
-3.693937588699999992e+02
-3.687021016599999825e+02
-3.700373477599999887e+02
-3.726056125299999735e+02
-3.688851762799999960e+02
-3.729222568600000045e+02
-3.719585468600000127e+02
-3.721296074100000055e+02
-3.711651125700000193e+02
-3.697321032599999739e+02
-3.676610603899999887e+02
-3.736067184799999836e+02
