-4.268531811099999800e+02
-4.206029300700000135e+02
-4.223013815499999737e+02
-4.187574257699999976e+02
-4.276212913800000024e+02
-4.275530920400000241e+02
-4.246695850899999982e+02
-4.245969273100000123e+02
-4.277678595799999925e+02
-4.274630015399999934e+02
-4.181409746100000007e+02
-4.236727776899999753e+02
-4.238896745000000124e+02
-4.187538872800000149e+02
-4.241650499400000172e+02
-4.241817128999999795e+02
-4.234770049900000117e+02
-4.240018684799999846e+02
-4.272608850899999879e+02
-4.172771834000000126e+02
-4.272874126400000137e+02
-4.183962268299999891e+02
-4.246273527600000079e+02
-4.217616561599999727e+02
-4.192812665499999980e+02
-4.236817287999999735e+02
-4.172568627300000230e+02
-4.208889510800000266e+02
-4.244088305199999809e+02
-4.266233901300000184e+02
-4.193122142400000030e+02
-4.245965158399999950e+02
-4.238315735200000063e+02
-4.229686017799999718e+02
-4.238368054399999778e+02
-4.239000875599999745e+02
-4.239350596699999869e+02
-4.274971654799999783e+02
-4.276565849400000161e+02
-4.238553668100000209e+02
-4.250454146800000217e+02
-4.190683906599999773e+02
-4.275850528999999938e+02
-4.235716825000000085e+02
-4.276502523799999835e+02
-4.277300332500000195e+02
-4.241666597799999749e+02
-4.214617250800000079e+02
-4.237572782600000210e+02
-4.245090917499999819e+02
