8.658899999999999153e+00 9.980570000000000164e+00 7.029320000000000235e+00 1.486299999999999955e+00 9.514599999999999724e-01 2.256920000000000037e+00 1.157978999999999914e+01 1.770780000000000021e+00 4.625519999999999854e+00 5.701050000000000395e+00 5.041820000000000412e+00 6.873330000000000162e+00 1.152679000000000009e+01 3.395129999999999981e+00 2.350049999999999972e+00 2.924650000000000194e+00 4.938119999999999621e+00 1.709999999999999932e-03 1.308118999999999943e+01 5.948100000000000165e+00 2.398890000000000189e+00 5.820249999999999702e+00 6.749649999999999928e+00 4.717699999999999783e+00 1.150149000000000044e+01 9.989630000000000010e+00 7.038979999999999571e+00 4.299229999999999663e+00 8.889200000000000434e-01 2.310750000000000082e+00 1.010734000000000066e+01 9.095670000000000144e+00 4.688550000000000217e+00 8.588169999999999860e+00 5.012970000000000148e+00 7.037320000000000242e+00 5.819350000000000023e+00 3.433170000000000055e+00 2.290550000000000086e+00 7.144070000000000142e+00 4.078660000000000174e+00 4.695339999999999847e+00 5.680349999999999788e+00 4.916330000000000311e+00 8.949999999999999623e-03 7.212399999999999700e+00 5.862499999999999822e+00 2.381940000000000168e+00 8.679619999999999891e+00 6.653660000000000352e+00 4.726259999999999906e+00 1.444063000000000052e+01 1.000178000000000011e+01 7.040720000000000312e+00 1.163508999999999993e+01 8.239660000000000650e+00 2.446330000000000116e+00 1.304869000000000057e+01 9.170239999999999725e+00 4.705960000000000143e+00 7.223029999999999617e+00 2.421879999999999811e+00 4.369999999999999753e-03 8.718080000000000496e+00 3.431509999999999838e+00 2.388910000000000089e+00 1.017313000000000045e+01 4.249399999999999622e+00 4.734200000000000408e+00 8.649430000000000618e+00 4.855590000000000295e+00 2.914999999999999883e-02 1.018669000000000047e+01 5.883729999999999905e+00 2.321569999999999911e+00 1.156268999999999991e+01 6.698680000000000412e+00 4.749780000000000335e+00 2.932819999999999983e+00 1.706250000000000044e+00 1.209430000000000005e+00 4.322560000000000180e+00 2.621070000000000011e+00 3.511480000000000157e+00 5.737610000000000099e+00 3.320310000000000095e+00 5.955910000000000259e+00 4.341789999999999594e+00 4.123770000000000380e+00 1.101089999999999902e+00 5.727610000000000312e+00 5.070850000000000080e+00 3.572309999999999874e+00 7.286270000000000024e+00 5.882039999999999935e+00 5.842259999999999565e+00 5.736410000000000231e+00 6.693500000000000227e+00 1.122679999999999900e+00 7.183639999999999581e+00 7.465489999999999959e+00 3.571489999999999831e+00 8.629099999999999326e+00 8.456060000000000798e+00 5.868640000000000079e+00 5.864460000000000228e+00 1.652789999999999981e+00 1.230739999999999945e+00 7.360039999999999694e+00 2.498380000000000045e+00 3.597989999999999799e+00 8.706409999999999982e+00 3.495760000000000201e+00 5.876070000000000348e+00 7.119650000000000034e+00 4.199589999999999712e+00 1.137329999999999952e+00 8.651619999999999422e+00 5.077510000000000190e+00 3.460570000000000146e+00 1.014052000000000042e+01 5.861250000000000071e+00 5.891969999999999708e+00 8.668860000000000454e+00 6.782519999999999882e+00 1.137939999999999952e+00 1.004442000000000057e+01 7.454039999999999999e+00 3.555169999999999941e+00 1.149699000000000026e+01 8.377969999999999473e+00 5.906830000000000247e+00 8.735099999999999199e+00 1.871650000000000036e+00 1.304389999999999938e+00 1.014211000000000062e+01 2.447680000000000078e+00 3.550289999999999946e+00 1.163898999999999972e+01 3.383649999999999824e+00 5.824729999999999741e+00 1.019178999999999924e+01 4.088260000000000005e+00 1.159550000000000081e+00 1.159619000000000000e+01 5.073380000000000223e+00 3.535660000000000025e+00 1.291999000000000031e+01 5.952650000000000219e+00 5.884809999999999874e+00 1.161869000000000085e+01 6.656959999999999766e+00 1.193109999999999893e+00 1.304889000000000010e+01 7.571130000000000138e+00 3.429539999999999811e+00 1.437778999999999918e+01 8.332330000000000680e+00 5.949069999999999858e+00
1.286436999999999919e+01 7.452429999999999666e+00 6.250000000000000000e-02 1.546519999999999895e+00 9.183499999999999996e-01 2.197049999999999947e+00 1.141707000000000072e+01 1.907780000000000031e+00 4.706109999999999793e+00 5.727170000000000094e+00 5.162119999999999820e+00 6.839559999999999640e+00 3.060249999999999915e+00 3.468599999999999905e+00 2.390029999999999877e+00 7.003569999999999851e+00 7.562500000000000000e+00 6.902630000000000265e+00 1.269866999999999990e+01 6.031450000000000422e+00 2.402449999999999974e+00 5.682319999999999816e+00 6.757880000000000109e+00 4.616259999999999586e+00 1.135177000000000014e+01 1.005353000000000030e+01 6.892979999999999663e+00 4.251120000000000232e+00 9.001700000000000257e-01 2.252120000000000122e+00 9.968959999999999155e+00 9.036479999999999180e+00 4.690809999999999924e+00 8.550969999999999516e+00 5.142809999999999881e+00 7.020800000000000374e+00 5.656550000000000189e+00 3.360910000000000064e+00 2.262150000000000105e+00 6.944619999999999571e+00 4.164699999999999847e+00 4.744360000000000355e+00 9.941689999999999472e+00 7.649189999999999934e+00 6.903439999999999799e+00 6.944320000000000270e+00 5.907689999999999664e+00 2.276689999999999880e+00 8.492720000000000269e+00 6.673650000000000304e+00 4.566769999999999996e+00 9.998780000000000001e+00 2.841600000000000126e+00 6.976910000000000167e+00 7.217299999999999827e+00 1.032529999999999948e+00 2.221810000000000063e+00 8.596189999999999998e+00 1.920789999999999997e+00 4.642220000000000013e+00 7.215959999999999930e+00 2.503750000000000142e+00 3.593999999999999972e-02 8.614300000000000068e+00 3.312559999999999949e+00 2.303430000000000089e+00 1.001357999999999926e+01 4.277260000000000062e+00 4.661129999999999995e+00 1.278866999999999976e+01 7.494930000000000092e+00 7.035910000000000331e+00 9.915110000000000312e+00 5.855179999999999829e+00 2.374470000000000081e+00 1.145326999999999984e+01 6.779790000000000205e+00 4.595410000000000217e+00 2.829670000000000130e+00 1.875550000000000050e+00 1.039050000000000029e+00 4.181479999999999642e+00 2.560360000000000191e+00 3.571340000000000181e+00 5.491749999999999687e+00 3.383230000000000182e+00 5.949569999999999581e+00 4.274409999999999599e+00 4.216199999999999726e+00 1.174949999999999939e+00 5.617589999999999861e+00 5.224300000000000388e+00 3.488970000000000127e+00 6.992939999999999934e+00 6.039179999999999993e+00 5.824779999999999625e+00 5.815319999999999823e+00 6.655160000000000409e+00 1.150549999999999962e+00 7.184529999999999639e+00 7.584459999999999980e+00 3.493110000000000159e+00 8.359429999999999694e+00 8.428160000000000096e+00 5.881569999999999965e+00 5.764529999999999710e+00 1.630169999999999897e+00 1.257719999999999949e+00 7.224899999999999878e+00 2.635540000000000216e+00 3.500950000000000006e+00 8.679830000000000823e+00 3.556680000000000064e+00 5.967880000000000074e+00 7.103629999999999889e+00 4.128499999999999837e+00 1.324969999999999981e+00 8.634600000000000719e+00 5.076399999999999579e+00 3.539379999999999971e+00 1.013207000000000058e+01 6.023030000000000328e+00 5.959340000000000082e+00 8.460610000000000852e+00 6.800670000000000215e+00 1.155980000000000008e+00 1.008146999999999949e+01 7.541780000000000150e+00 3.506060000000000176e+00 1.128196999999999939e+01 8.510590000000000543e+00 5.945940000000000225e+00 8.527760000000000673e+00 1.592479999999999896e+00 1.137539999999999996e+00 9.936429999999999652e+00 2.580060000000000020e+00 3.579530000000000101e+00 1.132057000000000002e+01 3.450790000000000024e+00 5.979490000000000194e+00 1.006846999999999959e+01 4.359639999999999738e+00 1.201759999999999939e+00 1.143136999999999937e+01 5.109790000000000276e+00 3.634440000000000115e+00 1.279256999999999955e+01 5.953689999999999927e+00 5.882670000000000066e+00 1.141267000000000031e+01 6.514100000000000001e+00 1.234609999999999985e+00 1.287827000000000055e+01 7.800080000000000346e+00 3.566019999999999968e+00 1.410586999999999946e+01 8.405359999999999943e+00 5.895889999999999631e+00
4.425790000000000113e+00 2.383360000000000145e+00 6.889820000000000277e+00 5.932879999999999932e+00 8.034280000000000754e+00 2.345029999999999948e+00 1.179088999999999920e+01 1.690290000000000070e+00 4.627889999999999837e+00 1.604989999999999917e+00 2.414689999999999781e+00 3.495999999999999802e-02 1.170791000000000004e+01 3.146659999999999791e+00 2.373470000000000191e+00 3.044589999999999907e+00 4.847080000000000055e+00 6.755999999999999506e-02 4.452090000000000103e+00 5.640740000000000087e+00 2.453289999999999971e+00 5.905590000000000117e+00 6.549640000000000128e+00 4.585860000000000269e+00 7.382480000000000153e+00 7.253930000000000433e+00 4.068999999999999700e-02 8.859389999999999432e+00 8.105430000000000135e+00 2.234739999999999949e+00 1.032973999999999926e+01 8.731609999999999872e+00 4.614679999999999893e+00 4.354599999999999582e+00 2.445289999999999964e+00 5.589000000000000218e-02 5.853530000000000122e+00 3.195809999999999818e+00 2.473069999999999879e+00 7.416970000000000063e+00 4.200730000000000075e+00 4.649300000000000210e+00 1.032362999999999964e+01 7.215609999999999857e+00 6.911439999999999806e+00 7.345600000000000129e+00 5.727719999999999700e+00 2.343319999999999848e+00 8.917429999999999524e+00 6.522990000000000066e+00 4.596409999999999663e+00 1.474981000000000009e+01 9.674239999999999284e+00 6.900800000000000267e+00 7.322370000000000267e+00 8.054099999999999593e-01 2.169639999999999791e+00 8.868900000000000006e+00 1.743190000000000017e+00 4.609429999999999694e+00 1.173113000000000028e+01 4.883390000000000342e+00 6.982789999999999608e+00 8.825139999999999318e+00 3.290550000000000086e+00 2.363539999999999974e+00 1.034951000000000043e+01 4.087760000000000282e+00 4.606359999999999566e+00 1.322772999999999932e+01 7.180990000000000428e+00 6.931210000000000093e+00 1.021691000000000038e+01 5.637470000000000425e+00 2.332110000000000127e+00 1.176411000000000051e+01 6.617720000000000269e+00 4.630959999999999965e+00 2.928529999999999855e+00 1.404120000000000035e+00 1.350859999999999950e+00 4.609130000000000393e+00 2.584649999999999892e+00 3.626689999999999969e+00 5.954240000000000421e+00 3.372300000000000075e+00 5.856080000000000396e+00 4.426980000000000359e+00 4.071850000000000414e+00 1.307770000000000099e+00 5.975010000000000154e+00 5.002220000000000333e+00 3.510419999999999874e+00 7.345019999999999882e+00 5.637669999999999959e+00 6.015509999999999913e+00 5.899359999999999715e+00 6.479919999999999902e+00 1.092629999999999990e+00 7.352630000000000443e+00 7.314899999999999736e+00 3.478790000000000049e+00 8.884529999999999816e+00 8.099529999999999674e+00 5.734210000000000029e+00 5.609630000000000116e+00 1.608579999999999899e+00 1.080240000000000089e+00 7.334539999999999615e+00 2.404240000000000155e+00 3.406089999999999840e+00 8.914780000000000371e+00 3.269200000000000106e+00 5.868479999999999919e+00 7.333809999999999718e+00 4.111299999999999955e+00 1.228229999999999933e+00 8.957369999999999166e+00 4.897599999999999731e+00 3.534710000000000019e+00 1.037790999999999997e+01 5.708960000000000257e+00 5.800159999999999982e+00 8.772719999999999629e+00 6.407399999999999984e+00 1.176719999999999988e+00 1.032490999999999914e+01 7.408789999999999765e+00 3.292489999999999917e+00 1.172921000000000014e+01 8.136409999999999698e+00 5.710280000000000022e+00 8.765180000000000859e+00 1.741160000000000041e+00 1.051569999999999894e+00 1.028011000000000053e+01 2.446140000000000203e+00 3.527740000000000098e+00 1.191530999999999985e+01 3.205849999999999866e+00 5.858460000000000001e+00 1.023891000000000062e+01 4.148950000000000138e+00 1.207649999999999890e+00 1.168770999999999916e+01 4.943950000000000067e+00 3.580909999999999815e+00 1.329890999999999934e+01 5.695420000000000371e+00 5.726270000000000415e+00 1.166961000000000048e+01 6.542150000000000354e+00 1.162760000000000016e+00 1.337541000000000047e+01 7.360999999999999766e+00 3.390600000000000058e+00 1.483980999999999995e+01 8.095980000000000842e+00 5.903050000000000352e+00
4.407720000000000304e+00 7.445700000000000429e+00 4.222000000000000058e-02 1.442742999999999931e+01 8.283670000000000755e+00 2.499060000000000059e+00 1.586652999999999913e+01 9.239589999999999748e+00 4.799870000000000303e+00 1.015126000000000062e+01 2.610240000000000116e+00 9.034000000000000363e-02 2.952249999999999819e+00 3.337800000000000100e+00 2.342140000000000111e+00 2.986810000000000187e+00 5.092909999999999826e+00 5.834999999999999909e-02 4.300589999999999691e+00 5.678670000000000329e+00 2.479459999999999997e+00 5.838189999999999991e+00 6.744489999999999874e+00 4.626800000000000246e+00 2.847729999999999873e+00 3.683999999999999775e-02 6.639000000000000457e-02 8.644750000000000156e+00 8.342670000000000030e+00 2.383000000000000007e+00 1.013786999999999949e+01 9.131899999999999906e+00 4.751290000000000013e+00 4.313539999999999708e+00 2.479789999999999939e+00 5.922999999999999793e-02 5.769720000000000404e+00 3.404570000000000096e+00 2.411979999999999791e+00 7.293249999999999567e+00 4.220690000000000275e+00 4.650909999999999656e+00 5.735990000000000144e+00 4.926400000000000112e+00 1.789999999999999925e-03 7.234569999999999723e+00 5.690080000000000027e+00 2.316339999999999844e+00 8.617340000000000444e+00 6.763060000000000294e+00 4.554470000000000240e+00 5.850760000000000183e+00 4.787000000000000283e-02 9.460000000000000353e-02 7.247519999999999740e+00 1.007200000000000095e+00 2.188849999999999962e+00 8.875970000000000582e+00 1.757400000000000073e+00 4.752089999999999925e+00 7.261309999999999931e+00 2.555860000000000021e+00 4.402999999999999969e-02 8.735689999999999955e+00 3.366490000000000204e+00 2.432760000000000034e+00 1.021392999999999951e+01 4.153080000000000105e+00 4.684720000000000439e+00 1.307202999999999982e+01 7.587049999999999628e+00 6.936359999999999637e+00 1.014293999999999940e+01 5.981749999999999901e+00 2.380809999999999871e+00 1.155483000000000082e+01 6.741690000000000182e+00 4.654499999999999638e+00 2.949899999999999967e+00 1.761360000000000037e+00 1.151869999999999949e+00 4.215819999999999901e+00 2.191289999999999960e+00 3.524989999999999846e+00 5.898880000000000123e+00 3.327510000000000190e+00 5.726300000000000168e+00 4.441279999999999895e+00 4.231429999999999580e+00 1.202479999999999993e+00 5.725600000000000023e+00 5.028710000000000235e+00 3.512360000000000149e+00 7.197490000000000165e+00 5.985599999999999810e+00 5.878470000000000084e+00 5.677990000000000315e+00 6.649910000000000210e+00 1.157499999999999973e+00 7.185299999999999798e+00 7.420399999999999885e+00 3.501959999999999962e+00 8.642929999999999779e+00 8.473200000000000287e+00 5.843049999999999855e+00 5.825239999999999974e+00 1.728010000000000046e+00 9.354999999999999982e-01 7.155030000000000001e+00 2.448859999999999815e+00 3.344289999999999985e+00 8.801569999999999894e+00 3.437899999999999956e+00 5.816089999999999982e+00 7.204790000000000028e+00 4.190640000000000143e+00 1.106600000000000028e+00 8.652520000000000877e+00 4.901049999999999685e+00 3.550320000000000142e+00 1.003054000000000023e+01 5.977789999999999715e+00 5.590980000000000061e+00 8.577120000000000744e+00 6.738730000000000331e+00 1.171899999999999942e+00 1.018224999999999980e+01 7.572330000000000005e+00 3.555439999999999934e+00 1.157212999999999958e+01 8.352700000000000458e+00 5.934980000000000366e+00 8.724140000000000228e+00 1.723070000000000102e+00 1.169589999999999907e+00 1.004313999999999929e+01 2.528259999999999952e+00 3.402969999999999828e+00 1.186443000000000048e+01 3.405380000000000074e+00 6.030590000000000117e+00 1.011064000000000007e+01 4.171610000000000262e+00 1.160619999999999985e+00 1.167023000000000010e+01 4.864670000000000272e+00 3.643120000000000136e+00 1.303223000000000020e+01 6.040790000000000326e+00 5.885710000000000441e+00 1.143412999999999968e+01 6.609569999999999723e+00 1.183000000000000052e+00 1.300783000000000023e+01 7.518399999999999750e+00 3.704740000000000144e+00 1.454002999999999979e+01 8.407429999999999737e+00 5.858229999999999826e+00
1.286002000000000045e+01 7.583820000000000228e+00 3.749999999999999861e-02 5.868509999999999671e+00 8.342959999999999710e+00 2.306500000000000217e+00 7.465729999999999755e+00 9.148389999999999134e+00 4.726989999999999803e+00 5.892409999999999926e+00 4.967999999999999972e+00 7.002570000000000405e+00 1.136304999999999943e+01 3.339620000000000033e+00 2.126450000000000173e+00 1.147915000000000063e+01 5.003529999999999589e+00 1.058899999999999980e-01 1.290365000000000073e+01 5.879579999999999806e+00 2.475159999999999805e+00 1.438034999999999997e+01 6.837270000000000181e+00 4.882390000000000008e+00 7.231480000000000352e+00 2.508430000000000160e+00 6.945070000000000299e+00 4.278660000000000352e+00 9.731999999999999540e-01 2.375430000000000152e+00 5.770900000000000141e+00 1.740420000000000078e+00 4.769020000000000259e+00 8.780889999999999418e+00 4.871780000000000221e+00 6.902470000000000105e+00 5.720049999999999635e+00 3.191920000000000091e+00 2.060690000000000133e+00 7.254120000000000346e+00 4.238690000000000069e+00 4.719199999999999839e+00 1.021294999999999931e+01 7.604140000000000121e+00 6.996599999999999930e+00 7.117600000000000371e+00 5.930039999999999978e+00 2.447579999999999867e+00 8.928879999999999484e+00 6.615770000000000373e+00 4.618940000000000268e+00 1.023597000000000001e+01 7.468689999999999607e+00 2.384000000000000008e-02 7.112949999999999662e+00 8.219499999999999584e-01 2.316829999999999945e+00 8.500189999999999912e+00 1.693089999999999984e+00 4.586190000000000211e+00 1.161485000000000056e+01 4.936359999999999637e+00 6.980369999999999742e+00 8.683619999999999450e+00 3.322249999999999925e+00 2.369559999999999889e+00 1.018205000000000027e+01 4.040370000000000239e+00 4.830499999999999794e+00 1.309394999999999953e+01 7.519750000000000156e+00 6.946220000000000283e+00 1.012005000000000088e+01 5.975869999999999571e+00 2.330919999999999881e+00 1.164424999999999955e+01 6.824169999999999625e+00 4.706509999999999749e+00 2.744209999999999816e+00 1.571819999999999995e+00 1.139180000000000081e+00 4.580160000000000231e+00 2.379399999999999959e+00 3.420350000000000001e+00 5.764840000000000408e+00 3.359109999999999818e+00 5.862930000000000419e+00 4.306709999999999816e+00 4.180010000000000225e+00 1.053039999999999976e+00 5.997659999999999769e+00 5.243059999999999832e+00 3.640039999999999942e+00 7.332889999999999908e+00 5.824460000000000193e+00 5.883899999999999686e+00 5.733249999999999957e+00 6.737300000000000288e+00 1.233880000000000088e+00 7.357370000000000410e+00 7.610260000000000247e+00 3.598460000000000214e+00 8.722699999999999676e+00 8.473390000000000200e+00 5.969310000000000116e+00 5.689630000000000187e+00 1.534650000000000070e+00 1.114100000000000090e+00 7.190419999999999590e+00 2.533409999999999940e+00 3.289930000000000021e+00 8.606989999999999696e+00 3.277940000000000076e+00 5.732109999999999594e+00 7.474639999999999951e+00 4.265939999999999621e+00 1.210539999999999949e+00 8.905219999999999914e+00 4.941980000000000040e+00 3.566390000000000171e+00 1.015825000000000067e+01 5.790569999999999773e+00 5.897680000000000256e+00 8.886110000000000397e+00 6.843619999999999592e+00 1.167259999999999964e+00 1.014814999999999934e+01 7.649610000000000021e+00 3.620999999999999996e+00 1.161485000000000056e+01 8.437170000000000059e+00 5.855970000000000120e+00 8.438219999999999388e+00 1.514329999999999954e+00 1.100289999999999990e+00 1.003074999999999939e+01 2.393289999999999917e+00 3.510959999999999859e+00 1.144725000000000037e+01 3.297779999999999934e+00 5.859840000000000160e+00 1.009665000000000035e+01 4.261420000000000208e+00 1.106119999999999992e+00 1.158535000000000004e+01 4.809750000000000192e+00 3.489630000000000010e+00 1.311475000000000080e+01 5.859479999999999578e+00 5.866469999999999629e+00 1.141375000000000028e+01 6.677710000000000257e+00 1.249030000000000085e+00 1.294684999999999953e+01 7.621920000000000250e+00 3.557549999999999990e+00 1.439015000000000022e+01 8.347250000000000725e+00 5.805620000000000225e+00
4.275009999999999977e+00 7.364189999999999792e+00 9.919999999999999998e-03 5.697090000000000209e+00 8.250899999999999679e+00 2.317250000000000032e+00 7.172819999999999752e+00 9.087809999999999278e+00 4.733389999999999986e+00 9.871499999999999275e+00 2.433409999999999851e+00 3.826000000000000234e-02 1.131884999999999941e+01 3.295869999999999855e+00 2.412349999999999994e+00 7.122930000000000206e+00 7.350830000000000197e+00 6.966870000000000118e+00 1.271204999999999963e+01 5.816329999999999778e+00 2.317340000000000177e+00 5.686790000000000234e+00 6.577309999999999768e+00 4.614049999999999763e+00 1.139037000000000077e+01 9.918530000000000513e+00 6.971860000000000390e+00 8.465640000000000498e+00 8.159860000000000113e+00 2.252510000000000012e+00 9.972870000000000346e+00 9.086209999999999454e+00 4.624139999999999695e+00 8.454280000000000683e+00 4.997539999999999871e+00 6.966809999999999725e+00 5.489209999999999923e+00 3.282890000000000086e+00 2.284909999999999997e+00 6.972480000000000011e+00 4.225259999999999572e+00 4.593270000000000408e+00 5.672509999999999941e+00 4.975679999999999659e+00 1.729999999999999941e-02 7.111299999999999955e+00 5.757799999999999585e+00 2.320250000000000146e+00 8.552210000000000534e+00 6.688019999999999854e+00 4.690369999999999706e+00 5.608220000000000205e+00 8.272000000000000186e-02 3.470000000000000168e-02 1.134326000000000079e+01 8.246059999999999945e+00 2.286659999999999915e+00 1.288134999999999941e+01 9.026030000000000442e+00 4.671369999999999578e+00 7.179409999999999847e+00 2.575180000000000025e+00 1.065099999999999936e-01 8.416740000000000776e+00 3.379010000000000069e+00 2.393710000000000004e+00 9.930460000000000065e+00 4.166680000000000383e+00 4.802439999999999820e+00 8.499010000000000176e+00 4.955540000000000056e+00 6.551999999999999491e-02 9.907339999999999591e+00 5.833400000000000141e+00 2.380999999999999783e+00 1.136514999999999986e+01 6.617329999999999934e+00 4.773579999999999934e+00 2.815990000000000215e+00 1.713230000000000031e+00 1.104130000000000056e+00 4.338350000000000151e+00 2.547559999999999825e+00 3.653999999999999915e+00 5.643510000000000026e+00 3.327030000000000154e+00 5.725459999999999994e+00 4.168989999999999974e+00 4.130150000000000432e+00 1.089779999999999971e+00 5.648760000000000225e+00 5.002580000000000027e+00 3.480370000000000186e+00 7.182870000000000310e+00 5.743649999999999700e+00 5.778830000000000133e+00 5.727319999999999744e+00 6.657949999999999591e+00 1.187319999999999931e+00 7.215379999999999683e+00 7.431700000000000195e+00 3.475130000000000052e+00 8.625230000000000175e+00 8.318260000000000431e+00 5.882819999999999716e+00 5.634830000000000005e+00 1.679240000000000066e+00 1.161929999999999907e+00 7.093799999999999883e+00 2.483690000000000175e+00 3.439890000000000114e+00 8.500479999999999592e+00 3.262739999999999974e+00 5.959399999999999586e+00 7.020970000000000155e+00 4.241500000000000270e+00 1.127969999999999917e+00 8.529519999999999769e+00 5.016939999999999955e+00 3.470149999999999846e+00 9.980600000000000804e+00 5.752340000000000231e+00 5.880690000000000417e+00 8.489589999999999748e+00 6.678490000000000038e+00 1.219079999999999941e+00 9.899449999999999861e+00 7.470270000000000188e+00 3.501980000000000093e+00 1.131475000000000009e+01 8.350099999999999412e+00 5.857630000000000337e+00 8.471539999999999182e+00 1.690010000000000012e+00 1.134859999999999980e+00 9.976229999999999265e+00 2.448259999999999881e+00 3.622869999999999813e+00 1.142745000000000033e+01 3.384619999999999962e+00 5.823929999999999829e+00 9.844310000000000116e+00 4.162020000000000053e+00 1.088189999999999991e+00 1.137255000000000038e+01 4.962460000000000093e+00 3.452329999999999899e+00 1.281204999999999927e+01 5.857540000000000191e+00 5.775760000000000005e+00 1.127635000000000076e+01 6.699970000000000425e+00 1.111040000000000028e+00 1.278945000000000043e+01 7.425360000000000404e+00 3.521689999999999987e+00 1.426144999999999996e+01 8.298130000000000450e+00 5.855170000000000208e+00
4.352070000000000327e+00 7.423960000000000115e+00 8.802999999999999714e-02 9.972089999999999677e+00 8.522100000000000231e-01 2.551159999999999872e+00 1.139739999999999931e+01 1.620430000000000037e+00 4.752239999999999576e+00 1.416299000000000063e+01 4.783780000000000143e+00 7.094240000000000101e+00 2.835890000000000022e+00 3.237309999999999910e+00 2.305800000000000072e+00 1.142018000000000022e+01 4.988760000000000083e+00 5.025999999999999912e-02 1.278631999999999991e+01 5.907919999999999838e+00 2.285950000000000149e+00 1.424468000000000067e+01 6.577580000000000204e+00 4.812219999999999942e+00 2.884310000000000151e+00 6.636999999999999844e-02 4.882999999999999841e-02 4.156559999999999810e+00 8.334000000000000297e-01 2.301499999999999879e+00 1.006818999999999953e+01 8.955560000000000187e+00 4.818629999999999747e+00 8.539080000000000226e+00 4.973609999999999864e+00 7.011549999999999727e+00 5.688489999999999824e+00 3.371820000000000039e+00 2.386969999999999814e+00 7.025030000000000108e+00 4.166330000000000311e+00 4.676330000000000098e+00 5.797109999999999985e+00 5.041240000000000165e+00 3.225999999999999701e-02 7.308559999999999945e+00 5.738640000000000185e+00 2.322109999999999896e+00 8.621399999999999508e+00 6.637780000000000236e+00 4.728679999999999772e+00 9.910209999999999297e+00 2.441349999999999909e+00 7.089339999999999975e+00 1.148696999999999946e+01 8.275800000000000267e+00 2.487000000000000099e+00 8.413240000000000052e+00 1.648889999999999967e+00 4.796459999999999724e+00 7.137550000000000061e+00 2.474450000000000038e+00 8.075999999999999845e-02 8.548450000000000770e+00 3.279209999999999958e+00 2.374620000000000175e+00 9.963100000000000733e+00 4.092080000000000162e+00 4.737029999999999852e+00 1.299158000000000079e+01 7.365529999999999688e+00 7.081459999999999866e+00 9.968460000000000321e+00 5.882089999999999819e+00 2.486470000000000180e+00 1.139020000000000010e+01 6.676149999999999807e+00 4.743319999999999759e+00 3.054440000000000044e+00 1.754240000000000022e+00 1.041090000000000071e+00 4.173359999999999737e+00 2.271850000000000147e+00 3.680070000000000174e+00 5.659900000000000375e+00 3.055400000000000116e+00 5.908299999999999663e+00 4.368859999999999744e+00 4.150949999999999918e+00 1.208909999999999929e+00 5.611950000000000216e+00 4.847889999999999588e+00 3.571070000000000189e+00 7.123879999999999768e+00 5.671879999999999811e+00 5.862569999999999837e+00 5.844450000000000145e+00 6.685940000000000438e+00 1.297879999999999923e+00 7.107169999999999987e+00 7.256920000000000037e+00 3.408220000000000027e+00 8.630280000000000840e+00 8.238129999999999953e+00 5.906729999999999592e+00 5.713180000000000369e+00 1.748429999999999929e+00 1.062859999999999916e+00 7.080230000000000246e+00 2.524970000000000159e+00 3.411280000000000090e+00 8.490140000000000242e+00 3.098700000000000010e+00 5.880200000000000315e+00 7.244220000000000326e+00 4.248599999999999710e+00 1.145710000000000006e+00 8.537679999999999936e+00 4.997040000000000148e+00 3.590310000000000112e+00 1.009454000000000029e+01 5.620860000000000412e+00 5.754059999999999953e+00 8.648699999999999832e+00 6.679730000000000167e+00 1.260769999999999946e+00 1.007592999999999961e+01 7.629480000000000040e+00 3.410600000000000076e+00 1.139799999999999969e+01 8.260999999999999233e+00 5.974560000000000315e+00 8.580310000000000770e+00 1.563169999999999948e+00 1.382270000000000110e+00 9.979269999999999641e+00 2.447589999999999932e+00 3.554730000000000167e+00 1.139710000000000001e+01 3.133290000000000131e+00 5.866579999999999906e+00 1.008636000000000088e+01 4.141910000000000203e+00 1.027619999999999978e+00 1.141099999999999959e+01 4.950779999999999959e+00 3.576970000000000205e+00 1.271829999999999927e+01 5.605439999999999756e+00 6.036310000000000286e+00 1.142149999999999999e+01 6.707290000000000418e+00 1.192870000000000097e+00 1.282290000000000063e+01 7.351409999999999556e+00 3.755650000000000155e+00 1.442089999999999961e+01 8.141600000000000392e+00 5.854770000000000252e+00