8.583114204999999330e+00 0.000000000000000000e+00 0.000000000000000000e+00 4.289305746000000141e+00 7.626203864999999915e+00 0.000000000000000000e+00 4.319483024000000171e+00 2.463140489999999794e+00 7.047511131000000262e+00
8.659960078999999311e+00 0.000000000000000000e+00 0.000000000000000000e+00 4.321021428999999969e+00 7.727894219999999592e+00 0.000000000000000000e+00 4.314533607000000437e+00 2.495035467000000118e+00 7.090401815999999968e+00
8.592437159999999352e+00 0.000000000000000000e+00 0.000000000000000000e+00 4.277153722999999630e+00 7.540031575000000430e+00 0.000000000000000000e+00 4.307491633999999792e+00 2.437128527000000044e+00 7.016514921999999821e+00
8.599355469000000696e+00 0.000000000000000000e+00 0.000000000000000000e+00 4.315370521000000181e+00 7.623180721999999854e+00 0.000000000000000000e+00 4.285676179000000197e+00 2.439971141000000010e+00 7.075271200999999621e+00
8.615534878000000063e+00 0.000000000000000000e+00 0.000000000000000000e+00 4.308274298999999807e+00 7.541385004000000336e+00 0.000000000000000000e+00 4.318801174999999937e+00 2.505787558000000192e+00 7.049253096000000163e+00
8.588332019999999289e+00 0.000000000000000000e+00 0.000000000000000000e+00 4.211164680000000438e+00 7.696086735999999817e+00 0.000000000000000000e+00 4.350154457999999558e+00 2.562754223999999859e+00 7.220975197999999651e+00
8.444169012999999779e+00 0.000000000000000000e+00 0.000000000000000000e+00 4.185099628999999766e+00 7.562181219000000176e+00 0.000000000000000000e+00 4.285055349000000291e+00 2.396282239000000036e+00 6.997603003000000044e+00
8.751987378000000817e+00 0.000000000000000000e+00 0.000000000000000000e+00 4.399348251000000154e+00 7.585337926000000230e+00 0.000000000000000000e+00 4.506475609999999854e+00 2.489502182999999924e+00 7.188209370000000042e+00
8.587201297000000011e+00 0.000000000000000000e+00 0.000000000000000000e+00 4.445318104000000048e+00 7.593770654000000064e+00 0.000000000000000000e+00 4.267500423000000431e+00 2.436178570000000043e+00 7.075485734999999998e+00
8.613827567999999602e+00 0.000000000000000000e+00 0.000000000000000000e+00 4.306388629999999829e+00 7.585431772999999822e+00 0.000000000000000000e+00 4.343651213000000233e+00 2.485571037999999788e+00 7.046961916999999964e+00
8.674736748999999136e+00 0.000000000000000000e+00 0.000000000000000000e+00 4.383001370999999757e+00 7.697230315999999739e+00 0.000000000000000000e+00 4.279389509999999675e+00 2.275114814000000152e+00 7.135528197000000183e+00
8.570167453999999907e+00 0.000000000000000000e+00 0.000000000000000000e+00 4.257058928000000186e+00 7.624853508000000168e+00 0.000000000000000000e+00 4.277968725000000028e+00 2.493618593999999966e+00 7.050592012000000075e+00
8.570901148000000802e+00 0.000000000000000000e+00 0.000000000000000000e+00 4.121572890999999572e+00 7.561674402999999600e+00 0.000000000000000000e+00 4.435897492999999692e+00 2.545302358999999903e+00 6.887399084000000116e+00
8.640706543000000295e+00 0.000000000000000000e+00 0.000000000000000000e+00 4.350706522000000298e+00 7.578740545999999689e+00 0.000000000000000000e+00 4.263002174000000366e+00 2.428195026000000034e+00 7.029310312999999866e+00
8.699098329999999990e+00 0.000000000000000000e+00 0.000000000000000000e+00 4.203014000999999666e+00 7.654489245999999802e+00 0.000000000000000000e+00 4.472386582999999582e+00 2.562961046999999937e+00 7.062265839000000156e+00
8.707426316999999472e+00 0.000000000000000000e+00 0.000000000000000000e+00 4.273223557999999755e+00 7.623185792000000127e+00 0.000000000000000000e+00 4.336394767999999900e+00 2.673105826000000018e+00 7.115599107999999617e+00
8.573239492000000794e+00 0.000000000000000000e+00 0.000000000000000000e+00 4.318561330999999726e+00 7.481044268999999858e+00 0.000000000000000000e+00 4.294989380999999717e+00 2.365428727999999925e+00 7.008251838999999705e+00
8.586454662999999599e+00 0.000000000000000000e+00 0.000000000000000000e+00 4.298188434000000058e+00 7.572646921999999670e+00 0.000000000000000000e+00 4.289305276000000333e+00 2.440517321999999822e+00 7.046565765999999620e+00
8.583661253000000713e+00 0.000000000000000000e+00 0.000000000000000000e+00 4.407227757000000246e+00 7.548916938999999715e+00 0.000000000000000000e+00 4.179093759999999769e+00 2.393228394999999953e+00 6.993748169999999931e+00
8.648779300999999364e+00 0.000000000000000000e+00 0.000000000000000000e+00 4.272957238000000046e+00 7.503772620000000337e+00 0.000000000000000000e+00 4.141112341999999558e+00 2.453891028999999779e+00 7.117285789000000307e+00
8.579403256000000866e+00 0.000000000000000000e+00 0.000000000000000000e+00 4.253901738999999793e+00 7.574357240000000324e+00 0.000000000000000000e+00 4.309285541000000386e+00 2.473864451999999936e+00 7.039748013999999721e+00
8.733885481999999811e+00 0.000000000000000000e+00 0.000000000000000000e+00 4.492408714999999830e+00 7.379315434999999646e+00 0.000000000000000000e+00 4.246065836999999732e+00 2.469793274000000149e+00 6.872079259000000384e+00
8.650273638999999903e+00 0.000000000000000000e+00 0.000000000000000000e+00 4.266201052000000438e+00 7.677865685999999634e+00 0.000000000000000000e+00 4.336728650999999601e+00 2.429026109000000044e+00 6.993121885999999954e+00
8.748568234000000388e+00 0.000000000000000000e+00 0.000000000000000000e+00 4.302836688000000187e+00 7.710973240000000395e+00 0.000000000000000000e+00 4.430557609000000063e+00 2.469915780000000005e+00 7.035088871000000132e+00
8.789260949000000878e+00 0.000000000000000000e+00 0.000000000000000000e+00 4.439008760000000109e+00 7.687673714999999852e+00 0.000000000000000000e+00 4.333648508999999649e+00 2.440024066999999963e+00 7.170398839999999829e+00
8.761865329999999119e+00 0.000000000000000000e+00 0.000000000000000000e+00 4.462258441000000353e+00 7.693915657999999880e+00 0.000000000000000000e+00 4.343228936000000040e+00 2.372671283999999936e+00 7.044811376000000180e+00
8.713275023999999647e+00 0.000000000000000000e+00 0.000000000000000000e+00 4.431529079999999787e+00 7.683253276000000298e+00 0.000000000000000000e+00 4.267918382999999594e+00 2.586379605999999942e+00 7.115292647999999609e+00
8.673831028000000387e+00 0.000000000000000000e+00 0.000000000000000000e+00 4.340156488999999951e+00 7.703024904000000284e+00 0.000000000000000000e+00 4.340009438000000053e+00 2.354316231999999953e+00 7.209842016999999714e+00
8.611673537999999795e+00 0.000000000000000000e+00 0.000000000000000000e+00 4.318206355000000052e+00 7.559952891000000008e+00 0.000000000000000000e+00 4.314849397999999780e+00 2.429018877999999937e+00 7.042189220000000027e+00
8.594419913999999494e+00 0.000000000000000000e+00 0.000000000000000000e+00 4.331220996999999961e+00 7.582910487000000366e+00 0.000000000000000000e+00 4.276662293000000226e+00 2.451299461000000068e+00 7.016986963999999993e+00
8.635486149000000111e+00 0.000000000000000000e+00 0.000000000000000000e+00 4.264542268999999663e+00 7.532132328000000321e+00 0.000000000000000000e+00 4.406690597999999959e+00 2.454643613000000002e+00 7.120797872999999889e+00
8.570901148000000802e+00 0.000000000000000000e+00 0.000000000000000000e+00 4.121572890999999572e+00 7.561674402999999600e+00 0.000000000000000000e+00 4.435897492999999692e+00 2.545302358999999903e+00 6.887399084000000116e+00
8.569919906000000864e+00 0.000000000000000000e+00 0.000000000000000000e+00 4.330681413999999840e+00 7.563078972999999650e+00 0.000000000000000000e+00 4.243320356999999987e+00 2.406286054999999813e+00 6.951932704999999935e+00
8.649628197000000185e+00 0.000000000000000000e+00 0.000000000000000000e+00 4.340174536000000138e+00 7.461728674999999811e+00 0.000000000000000000e+00 4.349628316000000439e+00 2.494275582000000213e+00 7.106885155999999704e+00
8.659287489000000448e+00 0.000000000000000000e+00 0.000000000000000000e+00 4.338209948000000260e+00 7.547696421999999572e+00 0.000000000000000000e+00 4.362175404000000256e+00 2.411802038999999898e+00 7.011295184999999819e+00
8.682186714000000194e+00 0.000000000000000000e+00 0.000000000000000000e+00 4.407957692000000094e+00 7.709553642000000373e+00 0.000000000000000000e+00 4.337122020999999883e+00 2.545935270999999833e+00 7.153545891000000267e+00
8.461130119999999977e+00 0.000000000000000000e+00 0.000000000000000000e+00 4.215700344000000044e+00 7.623097894999999902e+00 0.000000000000000000e+00 4.251629190000000058e+00 2.486302015999999782e+00 7.152373074999999858e+00
8.601262650000000676e+00 0.000000000000000000e+00 0.000000000000000000e+00 4.301969629000000239e+00 7.519554611000000222e+00 0.000000000000000000e+00 4.260925792000000101e+00 2.424726163999999962e+00 7.011505738000000321e+00
8.615586071999999263e+00 0.000000000000000000e+00 0.000000000000000000e+00 4.340770791999999823e+00 7.515429280000000212e+00 0.000000000000000000e+00 4.261100272000000189e+00 2.410399004999999928e+00 6.991158625999999821e+00
8.679842104000000447e+00 0.000000000000000000e+00 0.000000000000000000e+00 4.478993710000000128e+00 7.525299816999999614e+00 0.000000000000000000e+00 4.279442955999999576e+00 2.450039965999999847e+00 7.008462154000000055e+00
8.642912908999999644e+00 0.000000000000000000e+00 0.000000000000000000e+00 4.416834182999999747e+00 7.604914575999999649e+00 0.000000000000000000e+00 4.242971191999999725e+00 2.574869994000000162e+00 7.079881025999999800e+00
8.573639418999999151e+00 0.000000000000000000e+00 0.000000000000000000e+00 4.249516522999999601e+00 7.663302481999999749e+00 0.000000000000000000e+00 4.261566612000000198e+00 2.542255735999999988e+00 6.993641005999999827e+00
8.701700422000000046e+00 0.000000000000000000e+00 0.000000000000000000e+00 4.482840902999999599e+00 7.699748672000000127e+00 0.000000000000000000e+00 4.222130925000000090e+00 2.365926017000000048e+00 7.157709685999999571e+00
8.585285193000000703e+00 0.000000000000000000e+00 0.000000000000000000e+00 4.430142702000000376e+00 7.517582557999999970e+00 0.000000000000000000e+00 4.189922507000000351e+00 2.571557282000000111e+00 7.105658002000000195e+00
8.669020180000000408e+00 0.000000000000000000e+00 0.000000000000000000e+00 4.463098693000000061e+00 7.470161509000000422e+00 0.000000000000000000e+00 4.278372474000000203e+00 2.383356002000000196e+00 7.107676557999999645e+00
8.619706937000000124e+00 0.000000000000000000e+00 0.000000000000000000e+00 4.262180642999999769e+00 7.549102903999999725e+00 0.000000000000000000e+00 4.328229671999999972e+00 2.492068839999999952e+00 7.033808254000000204e+00
8.450930719000000479e+00 0.000000000000000000e+00 0.000000000000000000e+00 4.130376826000000001e+00 7.806932716999999577e+00 0.000000000000000000e+00 4.435882037999999916e+00 3.088099751000000115e+00 7.100871183999999836e+00
8.619212322999999287e+00 0.000000000000000000e+00 0.000000000000000000e+00 4.332638893999999574e+00 7.545455139999999616e+00 0.000000000000000000e+00 4.293127945000000167e+00 2.427741208000000039e+00 7.014893941000000410e+00
8.576243615999999292e+00 0.000000000000000000e+00 0.000000000000000000e+00 4.277600265000000235e+00 7.565864387000000413e+00 0.000000000000000000e+00 4.299409865000000330e+00 2.472294413000000191e+00 7.004908731000000444e+00
8.609918383000000119e+00 0.000000000000000000e+00 0.000000000000000000e+00 4.230856404999999931e+00 7.701569822999999815e+00 0.000000000000000000e+00 4.199945281999999835e+00 2.811647868000000106e+00 7.204836664000000113e+00
