1.282530999999999999e+01 7.538000000000000256e+00 1.217400000000000010e-01 1.567260000000000097e+00 9.474399999999999489e-01 2.365439999999999987e+00 2.926480000000000192e+00 1.693719999999999892e+00 4.669539999999999580e+00 1.446011000000000024e+01 5.296100000000000030e+00 7.034390000000000143e+00 1.141125000000000078e+01 3.306490000000000151e+00 2.349400000000000155e+00 1.275700999999999929e+01 4.440809999999999924e+00 4.493560000000000443e+00 1.578359999999999985e+01 7.640620000000000189e+00 7.045250000000000234e+00 1.283710999999999913e+01 6.033380000000000187e+00 2.290840000000000209e+00 5.698199999999999932e+00 6.697269999999999612e+00 4.593589999999999840e+00 7.160239999999999938e+00 7.352979999999999627e+00 1.734199999999999908e-01 4.395069999999999588e+00 9.507400000000000295e-01 2.316930000000000156e+00 1.008661000000000030e+01 9.200620000000000687e+00 4.505489999999999995e+00 4.271869999999999834e+00 2.569350000000000023e+00 1.092199999999999976e-01 5.746269999999999989e+00 3.432799999999999851e+00 2.426070000000000171e+00 7.281520000000000437e+00 4.446130000000000138e+00 4.729429999999999801e+00 9.875590000000000757e+00 7.534239999999999604e+00 7.042699999999999960e+00 7.140530000000000044e+00 5.912959999999999994e+00 2.324019999999999975e+00 8.607070000000000221e+00 6.788929999999999687e+00 4.737330000000000041e+00 9.970110000000000028e+00 7.614980000000000082e+00 4.460000000000000422e-03 7.249920000000000364e+00 9.967000000000000304e-01 2.261620000000000186e+00 8.654170000000000584e+00 1.665319999999999911e+00 4.608920000000000350e+00 1.139560999999999957e+01 5.021690000000000431e+00 7.032160000000000188e+00 8.547539999999999694e+00 3.448339999999999961e+00 2.301010000000000222e+00 9.951010000000000133e+00 4.118140000000000356e+00 4.779539999999999900e+00 8.511910000000000309e+00 5.205759999999999721e+00 1.038000000000000034e-02 1.008020999999999923e+01 5.976020000000000110e+00 2.447480000000000100e+00 1.152810999999999986e+01 6.735780000000000101e+00 4.612779999999999880e+00 2.958520000000000039e+00 1.746299999999999963e+00 1.212259999999999893e+00 4.313279999999999781e+00 2.556970000000000187e+00 3.530720000000000081e+00 5.716669999999999696e+00 2.404300000000000104e+00 6.092780000000000307e+00 4.280339999999999812e+00 4.175010000000000332e+00 1.183349999999999902e+00 5.598700000000000010e+00 5.219529999999999781e+00 3.282849999999999824e+00 7.267629999999999590e+00 5.886000000000000121e+00 5.987709999999999866e+00 5.796030000000000015e+00 6.908290000000000042e+00 1.361900000000000110e+00 7.223419999999999952e+00 7.601880000000000415e+00 3.456719999999999793e+00 8.375930000000000319e+00 8.237249999999999517e+00 5.768360000000000376e+00 5.865230000000000388e+00 1.611529999999999907e+00 1.082060000000000022e+00 7.123310000000000031e+00 2.631159999999999943e+00 3.520189999999999930e+00 8.610150000000000858e+00 3.316250000000000142e+00 5.964800000000000324e+00 7.031559999999999810e+00 4.252629999999999910e+00 1.065269999999999939e+00 8.604549999999999699e+00 5.028909999999999769e+00 3.502749999999999808e+00 9.940709999999999269e+00 5.841759999999999842e+00 5.956039999999999779e+00 8.668409999999999727e+00 6.763659999999999783e+00 1.226140000000000008e+00 1.008181000000000083e+01 7.705940000000000012e+00 3.440280000000000005e+00 1.158961000000000041e+01 8.358739999999999171e+00 5.861530000000000129e+00 8.590740000000000265e+00 1.660579999999999945e+00 1.110160000000000036e+00 1.000741000000000014e+01 2.511249999999999982e+00 3.480309999999999793e+00 1.163751000000000069e+01 3.248899999999999899e+00 5.928950000000000387e+00 1.004831000000000074e+01 4.292460000000000164e+00 1.139829999999999899e+00 1.139850999999999992e+01 5.002740000000000187e+00 3.602209999999999912e+00 1.276271000000000022e+01 6.039819999999999744e+00 5.889429999999999943e+00 1.141550999999999938e+01 6.672060000000000102e+00 1.289889999999999981e+00 1.288860999999999990e+01 7.724820000000000242e+00 3.431729999999999947e+00 1.437190999999999974e+01 8.309760000000000701e+00 5.830059999999999576e+00 5.631870000000000154e+00 4.281509999999999927e+00 5.383379999999999832e+00
4.260640000000000427e+00 7.461750000000000327e+00 4.794000000000000344e-02 1.007962000000000025e+01 9.256100000000000438e-01 2.273120000000000029e+00 2.994460000000000122e+00 1.783420000000000005e+00 4.725719999999999921e+00 1.005484000000000044e+01 2.770189999999999930e+00 2.028399999999999925e-01 1.146533999999999942e+01 3.472389999999999866e+00 2.375799999999999912e+00 1.288254000000000055e+01 4.384769999999999612e+00 4.613900000000000112e+00 2.959179999999999922e+00 5.151399999999999757e+00 2.094000000000000028e-02 1.293904000000000032e+01 6.057859999999999800e+00 2.350420000000000176e+00 1.443233999999999995e+01 6.886639999999999873e+00 4.703800000000000203e+00 7.352520000000000167e+00 7.667220000000000368e+00 8.541999999999999593e-02 4.412340000000000373e+00 8.518999999999999906e-01 2.219359999999999999e+00 1.023314000000000057e+01 9.228369999999999962e+00 4.537390000000000256e+00 4.456059999999999910e+00 2.656829999999999803e+00 6.479999999999999649e-02 5.723069999999999879e+00 3.485959999999999948e+00 2.482660000000000089e+00 7.276469999999999771e+00 4.498759999999999870e+00 4.760909999999999975e+00 1.021424000000000021e+01 7.691950000000000287e+00 7.005080000000000418e+00 7.171960000000000335e+00 5.938699999999999868e+00 2.383300000000000196e+00 8.695790000000000575e+00 6.903019999999999712e+00 4.696399999999999686e+00 1.011323999999999934e+01 2.493720000000000159e+00 7.077270000000000394e+00 1.154913999999999952e+01 8.467779999999999418e+00 2.276029999999999998e+00 8.646520000000000650e+00 1.669790000000000108e+00 4.580829999999999735e+00 1.146133999999999986e+01 5.003730000000000011e+00 6.994259999999999700e+00 8.560859999999999914e+00 3.515569999999999862e+00 2.396920000000000162e+00 1.005903999999999954e+01 4.309309999999999974e+00 4.720209999999999795e+00 1.293814000000000064e+01 7.675970000000000404e+00 7.013349999999999973e+00 1.006404000000000032e+01 5.976829999999999643e+00 2.399570000000000203e+00 1.154913999999999952e+01 6.744110000000000049e+00 4.610610000000000319e+00 2.918099999999999916e+00 1.769490000000000007e+00 1.127420000000000089e+00 4.275850000000000151e+00 2.609840000000000160e+00 3.607829999999999870e+00 5.759999999999999787e+00 2.398979999999999890e+00 6.110979999999999634e+00 4.343560000000000088e+00 4.425419999999999909e+00 1.346519999999999939e+00 5.726180000000000270e+00 5.339909999999999712e+00 3.475769999999999804e+00 7.385710000000000441e+00 6.046829999999999927e+00 5.956120000000000303e+00 5.800860000000000127e+00 6.830479999999999663e+00 1.242159999999999931e+00 7.079909999999999926e+00 7.709690000000000154e+00 3.493780000000000108e+00 8.517189999999999372e+00 8.420730000000000715e+00 5.933099999999999596e+00 5.771980000000000111e+00 1.652109999999999967e+00 1.127289999999999903e+00 7.152449999999999974e+00 2.691300000000000026e+00 3.548579999999999846e+00 8.618679999999999453e+00 3.398559999999999803e+00 5.913260000000000183e+00 7.224199999999999733e+00 4.182520000000000238e+00 1.111339999999999995e+00 8.588490000000000180e+00 5.164220000000000255e+00 3.557659999999999823e+00 1.004903999999999975e+01 5.784950000000000259e+00 5.951279999999999681e+00 8.761820000000000164e+00 6.784530000000000172e+00 1.044270000000000032e+00 1.001413999999999938e+01 7.614749999999999908e+00 3.453489999999999949e+00 1.156094000000000044e+01 8.424020000000000508e+00 5.792250000000000121e+00 8.687229999999999563e+00 1.664509999999999934e+00 1.239049999999999985e+00 1.003223999999999982e+01 2.665449999999999875e+00 3.602289999999999992e+00 1.172523999999999944e+01 3.442250000000000032e+00 5.950230000000000352e+00 1.010093999999999959e+01 4.308110000000000106e+00 1.323499999999999899e+00 1.154833999999999961e+01 5.045810000000000350e+00 3.563969999999999860e+00 1.284284000000000070e+01 6.142280000000000406e+00 5.849630000000000329e+00 1.155823999999999963e+01 6.844590000000000174e+00 1.176949999999999941e+00 1.281443999999999939e+01 7.744439999999999991e+00 3.454860000000000042e+00 1.448304000000000080e+01 8.622419999999999973e+00 5.790840000000000209e+00 5.703660000000000174e+00 4.451179999999999914e+00 5.617449999999999832e+00
1.273418999999999990e+01 7.472290000000000099e+00 1.340800000000000047e-01 1.002608999999999995e+01 8.352100000000000080e-01 2.325810000000000155e+00 2.884349999999999969e+00 1.641410000000000036e+00 4.651150000000000340e+00 9.956599999999999895e+00 2.736610000000000209e+00 2.088999999999999885e-02 1.144649000000000072e+01 3.353530000000000122e+00 2.309219999999999828e+00 1.277718999999999916e+01 4.296540000000000248e+00 4.596169999999999867e+00 7.164139999999999731e+00 7.474400000000000155e+00 7.001350000000000406e+00 1.285998999999999981e+01 5.866810000000000080e+00 2.328780000000000072e+00 5.760130000000000194e+00 6.687210000000000321e+00 4.647549999999999848e+00 7.286109999999999864e+00 7.487300000000000288e+00 9.947999999999999898e-02 4.294839999999999769e+00 8.706000000000000405e-01 2.301359999999999850e+00 1.001059000000000054e+01 9.022800000000000153e+00 4.576550000000000118e+00 8.582700000000000884e+00 5.024250000000000327e+00 6.996220000000000105e+00 5.708339999999999748e+00 3.362049999999999983e+00 2.333759999999999835e+00 7.305430000000000312e+00 4.278850000000000264e+00 4.544669999999999987e+00 1.004838999999999949e+01 7.530770000000000408e+00 6.990000000000000213e+00 7.181770000000000209e+00 5.879220000000000113e+00 2.324699999999999989e+00 8.632469999999999644e+00 6.702779999999999738e+00 4.647300000000000431e+00 1.004138999999999982e+01 2.467979999999999841e+00 6.990120000000000111e+00 7.169599999999999973e+00 8.448999999999999844e-01 2.336699999999999999e+00 8.606329999999999814e+00 1.632800000000000029e+00 4.670219999999999594e+00 7.122469999999999857e+00 2.539210000000000189e+00 3.148999999999999716e-02 8.567069999999999297e+00 3.336440000000000072e+00 2.318109999999999893e+00 1.004608999999999952e+01 4.182439999999999714e+00 4.668549999999999756e+00 1.292279000000000089e+01 7.489589999999999748e+00 6.991699999999999804e+00 1.002819000000000038e+01 5.881910000000000416e+00 2.314470000000000027e+00 1.147348999999999997e+01 6.706999999999999851e+00 4.654630000000000045e+00 2.828520000000000145e+00 1.693370000000000042e+00 1.104319999999999968e+00 4.320000000000000284e+00 2.539250000000000007e+00 3.540160000000000196e+00 5.726390000000000313e+00 2.272330000000000183e+00 6.212019999999999875e+00 4.256899999999999906e+00 4.161620000000000097e+00 1.200299999999999923e+00 5.759710000000000107e+00 5.118050000000000210e+00 3.356279999999999930e+00 7.278839999999999755e+00 5.950619999999999798e+00 5.824980000000000047e+00 5.688670000000000115e+00 6.658089999999999620e+00 1.357609999999999983e+00 7.192190000000000083e+00 7.589150000000000063e+00 3.437269999999999825e+00 8.423579999999999401e+00 8.205560000000000187e+00 5.783660000000000245e+00 5.728930000000000078e+00 1.677810000000000024e+00 1.156530000000000058e+00 7.125960000000000072e+00 2.519060000000000077e+00 3.529840000000000089e+00 8.560489999999999711e+00 3.343069999999999986e+00 5.847800000000000331e+00 7.163009999999999877e+00 4.180509999999999948e+00 1.165920000000000067e+00 8.634270000000000778e+00 5.016280000000000072e+00 3.441419999999999924e+00 1.004329000000000072e+01 5.805290000000000283e+00 5.815120000000000289e+00 8.627810000000000201e+00 6.710989999999999789e+00 1.153359999999999941e+00 1.000568999999999953e+01 7.516390000000000349e+00 3.468609999999999971e+00 1.158669000000000082e+01 8.186189999999999856e+00 5.823120000000000296e+00 8.586149999999999949e+00 1.676779999999999937e+00 1.160660000000000025e+00 9.987790000000000390e+00 2.528630000000000155e+00 3.501409999999999911e+00 1.147329000000000043e+01 3.292580000000000062e+00 5.831590000000000273e+00 1.000048999999999921e+01 4.215790000000000148e+00 1.165680000000000049e+00 1.144938999999999929e+01 5.031500000000000306e+00 3.487389999999999990e+00 1.279288999999999987e+01 5.900520000000000209e+00 5.873630000000000351e+00 1.140149000000000079e+01 6.731519999999999726e+00 1.135690000000000088e+00 1.286569000000000074e+01 7.541419999999999568e+00 3.501780000000000115e+00 1.431029000000000018e+01 8.363780000000000214e+00 5.846409999999999663e+00 5.763959999999999972e+00 4.181429999999999758e+00 5.514730000000000132e+00
1.279123000000000054e+01 7.512179999999999858e+00 1.149700000000000027e-01 1.440199999999999925e+00 8.511300000000000532e-01 2.331500000000000128e+00 1.144910999999999923e+01 1.665119999999999933e+00 4.698059999999999903e+00 1.002802999999999933e+01 2.787869999999999848e+00 5.204000000000000292e-02 2.887160000000000171e+00 3.403300000000000214e+00 2.319510000000000183e+00 1.278872999999999927e+01 4.358590000000000408e+00 4.591479999999999784e+00 1.573409000000000013e+01 7.563139999999999752e+00 7.072110000000000340e+00 1.289982999999999969e+01 5.917729999999999713e+00 2.352710000000000079e+00 1.431672999999999973e+01 6.796820000000000306e+00 4.706109999999999793e+00 7.314189999999999969e+00 7.528599999999999959e+00 8.683000000000000440e-02 4.327700000000000102e+00 8.597599999999999687e-01 2.337130000000000152e+00 1.007832999999999934e+01 9.093540000000000845e+00 4.613310000000000244e+00 8.570679999999999410e+00 5.019359999999999822e+00 7.056680000000000064e+00 5.772509999999999586e+00 3.404840000000000089e+00 2.337709999999999955e+00 7.192179999999999573e+00 4.400940000000000296e+00 4.624480000000000146e+00 5.685260000000000424e+00 5.107579999999999565e+00 1.747999999999999901e-02 7.154770000000000074e+00 5.924240000000000173e+00 2.370699999999999807e+00 8.579760000000000275e+00 6.710259999999999891e+00 4.703750000000000320e+00 1.004803000000000068e+01 2.450419999999999821e+00 7.026019999999999932e+00 7.187660000000000160e+00 8.755500000000000504e-01 2.353870000000000129e+00 8.589930000000000732e+00 1.674760000000000026e+00 4.711630000000000429e+00 1.146022999999999925e+01 5.036920000000000286e+00 7.050279999999999880e+00 8.580130000000000479e+00 3.394660000000000011e+00 2.358299999999999841e+00 1.001116000000000028e+01 4.187350000000000350e+00 4.726230000000000153e+00 1.288883000000000045e+01 7.542799999999999727e+00 7.064820000000000100e+00 1.002743000000000073e+01 5.927950000000000053e+00 2.361069999999999780e+00 1.143812999999999924e+01 6.743619999999999948e+00 4.710560000000000080e+00 2.874429999999999819e+00 1.721780000000000088e+00 1.110009999999999941e+00 4.337320000000000064e+00 2.527590000000000003e+00 3.497790000000000177e+00 5.694340000000000401e+00 2.245690000000000186e+00 6.269720000000000404e+00 4.318520000000000358e+00 4.252500000000000391e+00 1.158719999999999972e+00 5.745849999999999902e+00 5.124600000000000044e+00 3.412009999999999987e+00 7.223650000000000126e+00 6.005180000000000184e+00 5.863870000000000360e+00 5.721449999999999925e+00 6.706570000000000142e+00 1.382889999999999953e+00 7.228889999999999816e+00 7.652759999999999785e+00 3.471169999999999867e+00 8.420989999999999753e+00 8.252250000000000085e+00 5.863830000000000098e+00 5.731080000000000396e+00 1.686919999999999975e+00 1.153200000000000003e+00 7.163649999999999629e+00 2.515789999999999971e+00 3.517030000000000101e+00 8.580000000000000071e+00 3.302049999999999930e+00 5.887690000000000090e+00 7.197219999999999729e+00 4.213119999999999976e+00 1.185210000000000097e+00 8.609830000000000538e+00 5.074230000000000018e+00 3.535890000000000200e+00 1.003893000000000058e+01 5.821060000000000123e+00 5.911019999999999719e+00 8.636839999999999407e+00 6.743769999999999598e+00 1.198380000000000001e+00 1.003763000000000005e+01 7.557019999999999627e+00 3.505250000000000199e+00 1.163893000000000022e+01 8.303219999999999601e+00 5.824390000000000178e+00 8.621199999999999974e+00 1.691710000000000047e+00 1.137539999999999996e+00 1.005932999999999922e+01 2.576410000000000089e+00 3.482759999999999856e+00 1.149362999999999957e+01 3.329099999999999948e+00 5.887819999999999609e+00 1.003922999999999988e+01 4.270179999999999865e+00 1.193319999999999936e+00 1.143032999999999966e+01 5.070380000000000109e+00 3.508620000000000072e+00 1.281292999999999971e+01 6.023439999999999905e+00 5.885550000000000281e+00 1.145433000000000057e+01 6.756499999999999950e+00 1.187340000000000062e+00 1.290713000000000044e+01 7.647140000000000271e+00 3.502520000000000078e+00 1.433403000000000027e+01 8.464349999999999596e+00 5.852719999999999700e+00 5.689569999999999794e+00 4.207489999999999952e+00 5.630950000000000344e+00
8.577460000000000306e+00 5.904000000000000220e-02 6.053999999999999659e-02 1.438399999999999901e+00 8.322899999999999743e-01 2.315370000000000150e+00 1.577284000000000042e+01 9.202080000000000481e+00 4.692719999999999558e+00 1.003424000000000049e+01 2.730210000000000026e+00 2.127000000000000071e-02 1.148123999999999967e+01 3.389390000000000125e+00 2.320949999999999847e+00 1.274544000000000032e+01 4.299900000000000055e+00 4.537099999999999689e+00 7.226799999999999891e+00 7.618009999999999948e+00 6.978909999999999947e+00 4.394899999999999807e+00 5.981449999999999712e+00 2.312940000000000218e+00 5.734449999999999825e+00 6.542930000000000135e+00 4.781810000000000116e+00 7.267339999999999911e+00 7.446010000000000240e+00 8.762999999999999956e-02 8.588070000000000093e+00 8.352690000000000836e+00 2.354929999999999968e+00 1.013923999999999914e+01 9.074360000000000426e+00 4.589970000000000105e+00 4.260860000000000092e+00 2.532770000000000188e+00 5.267999999999999766e-02 5.748940000000000161e+00 3.264699999999999935e+00 2.319980000000000153e+00 7.280859999999999665e+00 4.150970000000000049e+00 4.651049999999999685e+00 9.984550000000000480e+00 7.477560000000000429e+00 7.016539999999999999e+00 7.111909999999999954e+00 5.935310000000000308e+00 2.394550000000000178e+00 8.662140000000000839e+00 6.689759999999999707e+00 4.619489999999999874e+00 1.008961000000000041e+01 7.520809999999999995e+00 4.775999999999999690e-02 1.152093999999999951e+01 8.364050000000000651e+00 2.365000000000000213e+00 8.592320000000000846e+00 1.733710000000000084e+00 4.745790000000000397e+00 7.097699999999999676e+00 2.512789999999999857e+00 5.772999999999999660e-02 8.634990000000000165e+00 3.381359999999999921e+00 2.447649999999999881e+00 9.992440000000000211e+00 4.256350000000000300e+00 4.627419999999999867e+00 1.292559999999999931e+01 7.607020000000000337e+00 7.014280000000000292e+00 1.010243999999999964e+01 5.889219999999999899e+00 2.307879999999999932e+00 1.142413999999999952e+01 6.671090000000000408e+00 4.733450000000000379e+00 2.940650000000000208e+00 1.710450000000000026e+00 1.242329999999999934e+00 4.384299999999999642e+00 2.509749999999999925e+00 3.529589999999999783e+00 5.826349999999999696e+00 2.657890000000000086e+00 6.103679999999999772e+00 4.320129999999999804e+00 4.210919999999999774e+00 1.075539999999999941e+00 5.697009999999999685e+00 5.087270000000000181e+00 3.184190000000000076e+00 7.460510000000000197e+00 5.962950000000000195e+00 5.959130000000000038e+00 5.777280000000000193e+00 6.698710000000000164e+00 1.283330000000000082e+00 7.203769999999999563e+00 7.562240000000000073e+00 3.536470000000000002e+00 8.561880000000000379e+00 8.348160000000000025e+00 5.741550000000000153e+00 5.761350000000000193e+00 1.608400000000000052e+00 1.139620000000000077e+00 7.207860000000000156e+00 2.465190000000000214e+00 3.567709999999999937e+00 8.571389999999999176e+00 3.293419999999999792e+00 5.915740000000000443e+00 7.124019999999999797e+00 4.176669999999999661e+00 1.196180000000000021e+00 8.625679999999999126e+00 5.039259999999999629e+00 3.520519999999999872e+00 1.002533999999999992e+01 5.806449999999999889e+00 5.865789999999999615e+00 8.640969999999999374e+00 6.624920000000000364e+00 1.273179999999999978e+00 1.010074000000000005e+01 7.512830000000000119e+00 3.428749999999999964e+00 1.147774000000000072e+01 8.288510000000000488e+00 5.821930000000000049e+00 8.573479999999999990e+00 1.811290000000000067e+00 1.262709999999999999e+00 1.006053999999999959e+01 2.578520000000000145e+00 3.548449999999999882e+00 1.150103999999999971e+01 3.363999999999999879e+00 5.874869999999999592e+00 1.009684000000000026e+01 4.215860000000000163e+00 1.126900000000000013e+00 1.148213999999999935e+01 4.965900000000000425e+00 3.515680000000000138e+00 1.268684000000000012e+01 6.104919999999999902e+00 5.946130000000000138e+00 1.154523999999999972e+01 6.797509999999999941e+00 1.167329999999999979e+00 1.296753999999999962e+01 7.547310000000000407e+00 3.507950000000000124e+00 1.438073999999999941e+01 8.381180000000000518e+00 5.852030000000000065e+00 5.673210000000000086e+00 4.627299999999999969e+00 5.365870000000000140e+00
4.165420000000000122e+00 7.449220000000000397e+00 7.772999999999999354e-02 1.006752000000000002e+01 9.342500000000000249e-01 2.427690000000000126e+00 1.153191999999999950e+01 1.776550000000000074e+00 4.848390000000000200e+00 1.429561999999999955e+01 5.247539999999999871e+00 7.179870000000000196e+00 2.864679999999999893e+00 3.440459999999999852e+00 2.392040000000000166e+00 4.339889999999999581e+00 4.410529999999999617e+00 4.594260000000000232e+00 1.141186000000000078e+01 5.256840000000000401e+00 2.164999999999999911e-02 1.281122000000000050e+01 6.121719999999999828e+00 2.437180000000000124e+00 1.435162000000000049e+01 6.948809999999999931e+00 4.843849999999999767e+00 7.105290000000000106e+00 7.618249999999999744e+00 3.711699999999999999e-01 4.340469999999999828e+00 9.125699999999999923e-01 2.432490000000000041e+00 9.920469999999999899e+00 9.288959999999999440e+00 4.543999999999999595e+00 8.585290000000000532e+00 5.065820000000000434e+00 7.166450000000000209e+00 5.820759999999999934e+00 3.481580000000000119e+00 2.295080000000000009e+00 7.304050000000000153e+00 4.692859999999999587e+00 4.735369999999999635e+00 5.704469999999999708e+00 5.080219999999999736e+00 1.105300000000000032e-01 7.058010000000000339e+00 6.036880000000000024e+00 2.407059999999999977e+00 8.598509999999999209e+00 6.917919999999999625e+00 4.754839999999999733e+00 9.989069999999999894e+00 2.718199999999999950e+00 7.145800000000000374e+00 7.217559999999999754e+00 9.006499999999999506e-01 2.384170000000000122e+00 1.295661999999999914e+01 9.342119999999999536e+00 4.759389999999999787e+00 1.154011999999999993e+01 5.015909999999999869e+00 7.142380000000000173e+00 8.569140000000000867e+00 3.458299999999999930e+00 2.485739999999999839e+00 1.013652000000000086e+01 4.301009999999999778e+00 4.795650000000000190e+00 8.605209999999999582e+00 5.203330000000000233e+00 1.408000000000000085e-01 9.946910000000000807e+00 6.107990000000000030e+00 2.352889999999999926e+00 1.143121999999999971e+01 6.699919999999999654e+00 4.909399999999999764e+00 2.874109999999999943e+00 1.733530000000000015e+00 1.154420000000000002e+00 4.329369999999999941e+00 2.462000000000000188e+00 3.682389999999999830e+00 1.014481999999999928e+01 9.931409999999999627e+00 6.357549999999999812e+00 4.264850000000000030e+00 4.332880000000000287e+00 1.312130000000000019e+00 5.696110000000000007e+00 5.254010000000000069e+00 3.402709999999999901e+00 7.266200000000000436e+00 6.155230000000000423e+00 6.012459999999999916e+00 5.574980000000000047e+00 7.031250000000000000e+00 1.418940000000000090e+00 7.110120000000000218e+00 7.743360000000000021e+00 3.542800000000000171e+00 8.309169999999999945e+00 8.577310000000000656e+00 5.875359999999999694e+00 5.824959999999999916e+00 1.793739999999999890e+00 1.253889999999999949e+00 7.079589999999999606e+00 2.563860000000000028e+00 3.464789999999999814e+00 8.558370000000000033e+00 3.488890000000000047e+00 6.058740000000000236e+00 7.168180000000000440e+00 4.497550000000000381e+00 1.350610000000000088e+00 8.643110000000000070e+00 5.184129999999999683e+00 3.509869999999999823e+00 9.935249999999999915e+00 5.931600000000000428e+00 5.946939999999999671e+00 8.537570000000000547e+00 6.885040000000000049e+00 1.162369999999999903e+00 9.983879999999999200e+00 7.598740000000000272e+00 3.605360000000000120e+00 1.159811999999999976e+01 8.190099999999999270e+00 6.096949999999999648e+00 8.495639999999999858e+00 1.771900000000000031e+00 1.164430000000000076e+00 9.975130000000000052e+00 2.532420000000000115e+00 3.538920000000000066e+00 1.141252000000000066e+01 3.607380000000000031e+00 5.823920000000000208e+00 9.969480000000000786e+00 4.443970000000000198e+00 1.091020000000000101e+00 1.148942000000000085e+01 5.105839999999999712e+00 3.650300000000000100e+00 1.281722000000000072e+01 5.981270000000000309e+00 6.105030000000000179e+00 1.133032000000000039e+01 6.830269999999999619e+00 1.136430000000000051e+00 1.285162000000000049e+01 7.716709999999999958e+00 3.675460000000000171e+00 1.413871999999999929e+01 8.703319999999999723e+00 6.009430000000000049e+00 5.847430000000000128e+00 4.170639999999999681e+00 5.593479999999999563e+00
1.240523999999999916e+01 7.383270000000000444e+00 1.586500000000000132e-01 9.865140000000000242e+00 8.503600000000000048e-01 2.322529999999999983e+00 1.129035999999999973e+01 1.649040000000000061e+00 4.614090000000000025e+00 1.410045000000000037e+01 5.200029999999999930e+00 6.858270000000000088e+00 2.782399999999999984e+00 3.350389999999999979e+00 2.171089999999999964e+00 4.231969999999999565e+00 4.271790000000000198e+00 4.372749999999999915e+00 7.104230000000000267e+00 7.455429999999999779e+00 6.959920000000000329e+00 1.264607999999999954e+01 5.949770000000000003e+00 2.293029999999999902e+00 1.409258999999999951e+01 6.788940000000000197e+00 4.632189999999999586e+00 7.110739999999999839e+00 7.397560000000000358e+00 8.040999999999999537e-02 4.251890000000000391e+00 8.595599999999999907e-01 2.401549999999999851e+00 9.842359999999999332e+00 8.964620000000000033e+00 4.752159999999999940e+00 8.440699999999999648e+00 4.992149999999999643e+00 6.932159999999999656e+00 5.716859999999999609e+00 3.323539999999999939e+00 2.311529999999999863e+00 7.177489999999999704e+00 4.255230000000000068e+00 4.417609999999999815e+00 5.597690000000000055e+00 5.108999999999999986e+00 7.020000000000000198e-03 7.182409999999999961e+00 5.953079999999999927e+00 2.301810000000000134e+00 8.481239999999999668e+00 6.685940000000000438e+00 4.660420000000000229e+00 9.884140000000000370e+00 2.502759999999999874e+00 6.931689999999999685e+00 6.973740000000000272e+00 8.589499999999999913e-01 2.293120000000000047e+00 8.458140000000000214e+00 1.636130000000000084e+00 4.639380000000000059e+00 1.136373999999999995e+01 4.882659999999999556e+00 6.907820000000000071e+00 8.462849999999999540e+00 3.259939999999999838e+00 2.243590000000000195e+00 9.800039999999999196e+00 4.147590000000000110e+00 4.621430000000000149e+00 1.269594000000000023e+01 7.456970000000000098e+00 6.988850000000000229e+00 9.755069999999999908e+00 5.873269999999999769e+00 2.272159999999999958e+00 1.127754000000000012e+01 6.603480000000000238e+00 4.678009999999999557e+00 2.687749999999999861e+00 1.662130000000000107e+00 1.048249999999999904e+00 4.312030000000000030e+00 2.552550000000000097e+00 3.528469999999999995e+00 5.641689999999999650e+00 2.393380000000000063e+00 6.284379999999999633e+00 4.213110000000000355e+00 4.139100000000000001e+00 1.172060000000000102e+00 5.634850000000000136e+00 5.115050000000000097e+00 3.293270000000000142e+00 7.141040000000000276e+00 6.065590000000000259e+00 5.820129999999999804e+00 5.691460000000000186e+00 6.663630000000000386e+00 1.413119999999999932e+00 7.127679999999999794e+00 7.646530000000000271e+00 3.483330000000000037e+00 8.372870000000000701e+00 8.203340000000000742e+00 5.884389999999999787e+00 5.572779999999999845e+00 1.600130000000000052e+00 1.143499999999999961e+00 7.131269999999999776e+00 2.465530000000000221e+00 3.530720000000000081e+00 8.543260000000000076e+00 3.387399999999999967e+00 5.792570000000000441e+00 7.043650000000000411e+00 4.184919999999999973e+00 1.218299999999999939e+00 8.458880000000000621e+00 5.132690000000000197e+00 3.494310000000000027e+00 9.960140000000000882e+00 5.664830000000000254e+00 5.892199999999999882e+00 8.436619999999999564e+00 6.791439999999999699e+00 1.148730000000000029e+00 9.783939999999999415e+00 7.509310000000000151e+00 3.547930000000000028e+00 1.130774000000000079e+01 8.194599999999999440e+00 5.823120000000000296e+00 8.374219999999999331e+00 1.615119999999999889e+00 1.177040000000000086e+00 9.943339999999999179e+00 2.450349999999999806e+00 3.476620000000000044e+00 1.140523999999999916e+01 3.227759999999999962e+00 5.831710000000000171e+00 9.783099999999999241e+00 4.135390000000000121e+00 1.132710000000000106e+00 1.117243999999999993e+01 4.954620000000000246e+00 3.554710000000000036e+00 1.275433999999999912e+01 5.938109999999999999e+00 5.831620000000000026e+00 1.116094000000000008e+01 6.553160000000000096e+00 1.240359999999999907e+00 1.261303999999999981e+01 7.574370000000000047e+00 3.412310000000000176e+00 1.405973999999999968e+01 8.382860000000000866e+00 5.807870000000000310e+00 5.764190000000000147e+00 4.171280000000000321e+00 5.358760000000000190e+00