6.290514797000000158e+00 0.000000000000000000e+00 0.000000000000000000e+00 -1.621101051999999987e+00 8.149509528999999475e+00 0.000000000000000000e+00 -1.610078198999999932e+00 2.711511121000000024e+00 7.688514225999999674e+00
6.160321705000000314e+00 0.000000000000000000e+00 0.000000000000000000e+00 -1.599773756000000047e+00 8.011891849999999593e+00 0.000000000000000000e+00 -1.843465834999999942e+00 2.500325917000000064e+00 9.854133968999999382e+00
6.209802852000000151e+00 0.000000000000000000e+00 0.000000000000000000e+00 -1.579978206000000052e+00 7.996667979999999787e+00 0.000000000000000000e+00 -1.565306982000000069e+00 2.623582857999999796e+00 7.555508330000000328e+00
6.204991348000000073e+00 0.000000000000000000e+00 0.000000000000000000e+00 -1.643166998000000101e+00 7.859130994000000037e+00 0.000000000000000000e+00 -1.681917647999999987e+00 2.497368353000000152e+00 7.548012737999999722e+00
6.313126734999999989e+00 0.000000000000000000e+00 0.000000000000000000e+00 -1.647381030000000024e+00 7.815848982000000333e+00 0.000000000000000000e+00 -1.626313963000000085e+00 2.183899923999999881e+00 7.466695230000000016e+00
6.119684334999999642e+00 0.000000000000000000e+00 0.000000000000000000e+00 -1.775763658000000023e+00 8.268329569000000490e+00 0.000000000000000000e+00 -1.315427754999999976e+00 2.888074426999999833e+00 7.458119849000000023e+00
6.211797371000000290e+00 0.000000000000000000e+00 0.000000000000000000e+00 -1.584085587999999989e+00 8.023363306000000250e+00 0.000000000000000000e+00 -1.571006646000000062e+00 2.646251244000000113e+00 7.567908601000000068e+00
6.286767529999999660e+00 0.000000000000000000e+00 0.000000000000000000e+00 -1.649522393999999892e+00 7.796682814999999600e+00 0.000000000000000000e+00 -1.652897360999999954e+00 2.155830509999999922e+00 7.545545599000000436e+00
6.324122986999999974e+00 0.000000000000000000e+00 0.000000000000000000e+00 -1.443411959000000078e+00 7.946551207999999811e+00 0.000000000000000000e+00 -1.605789471000000024e+00 2.518994292999999995e+00 7.743386155999999687e+00
6.189853413999999887e+00 0.000000000000000000e+00 0.000000000000000000e+00 -1.575649407000000002e+00 7.945372772999999889e+00 0.000000000000000000e+00 -1.555989854999999977e+00 2.575283253999999911e+00 7.509286732999999714e+00
6.403994518000000191e+00 0.000000000000000000e+00 0.000000000000000000e+00 -1.492027006999999905e+00 8.071858496000000827e+00 0.000000000000000000e+00 -1.654437508000000001e+00 2.549487892000000144e+00 7.577601183999999712e+00
6.196190224000000413e+00 0.000000000000000000e+00 0.000000000000000000e+00 -1.554858776000000109e+00 8.033125946000000184e+00 0.000000000000000000e+00 -1.575627201999999949e+00 2.635111023999999968e+00 7.606256478999999793e+00
6.174446460000000414e+00 0.000000000000000000e+00 0.000000000000000000e+00 -1.493937180999999947e+00 8.022597387999999441e+00 0.000000000000000000e+00 -1.624288374000000035e+00 2.651963241999999887e+00 7.539007016000000228e+00
6.266043005000000221e+00 0.000000000000000000e+00 0.000000000000000000e+00 -1.565614977999999935e+00 8.106263132000000482e+00 0.000000000000000000e+00 -1.619305867000000010e+00 2.703319030999999928e+00 7.679071221000000058e+00
6.191012740999999764e+00 0.000000000000000000e+00 0.000000000000000000e+00 -1.517032053999999963e+00 8.021556082000000032e+00 0.000000000000000000e+00 -1.553189415999999934e+00 2.685909667999999861e+00 7.553156486999999863e+00
6.179482806000000217e+00 0.000000000000000000e+00 0.000000000000000000e+00 -1.624548729000000025e+00 8.038848253999999471e+00 0.000000000000000000e+00 -1.571866028000000082e+00 2.621106979999999975e+00 7.565089469000000122e+00
6.235600284000000215e+00 0.000000000000000000e+00 0.000000000000000000e+00 -1.418004786000000017e+00 7.875621590999999810e+00 0.000000000000000000e+00 -1.564482257000000098e+00 2.500982281000000196e+00 7.750543057999999874e+00
6.169134850999999919e+00 0.000000000000000000e+00 0.000000000000000000e+00 -1.795426148000000000e+00 7.967283833999999842e+00 0.000000000000000000e+00 -1.408313017000000000e+00 2.733483489999999794e+00 7.698889656000000414e+00
6.183343451999999907e+00 0.000000000000000000e+00 0.000000000000000000e+00 -1.618429467999999982e+00 8.020997512999999302e+00 0.000000000000000000e+00 -1.531110350999999925e+00 2.629724238000000103e+00 7.614923140000000146e+00
6.262149767000000367e+00 0.000000000000000000e+00 0.000000000000000000e+00 -1.560931206000000016e+00 8.152751553999999956e+00 0.000000000000000000e+00 -1.646751183999999979e+00 2.727993461000000064e+00 7.790545956999999966e+00
6.193568911999999926e+00 0.000000000000000000e+00 0.000000000000000000e+00 -1.513571533999999996e+00 8.026949072000000740e+00 0.000000000000000000e+00 -1.542662315000000062e+00 2.648368426999999858e+00 7.578658285999999578e+00
6.188135224999999906e+00 0.000000000000000000e+00 0.000000000000000000e+00 -1.717244860999999956e+00 8.058809049000000613e+00 0.000000000000000000e+00 -1.637870951000000019e+00 2.353193006999999781e+00 7.463737512999999879e+00
6.361220961999999979e+00 0.000000000000000000e+00 0.000000000000000000e+00 -1.738848256999999897e+00 7.662301700000000437e+00 0.000000000000000000e+00 -1.732479740000000046e+00 1.817532527000000009e+00 7.471962120999999790e+00
6.249433236999999863e+00 0.000000000000000000e+00 0.000000000000000000e+00 -1.583846859000000107e+00 8.105470590999999558e+00 0.000000000000000000e+00 -1.551094098999999948e+00 2.697778158999999842e+00 7.708926565999999703e+00
6.391740589000000305e+00 0.000000000000000000e+00 0.000000000000000000e+00 -1.467775382999999989e+00 8.022128654999999497e+00 0.000000000000000000e+00 -1.638363309999999906e+00 2.538471860000000024e+00 7.678351164000000395e+00
6.365839110999999662e+00 0.000000000000000000e+00 0.000000000000000000e+00 -1.510272653999999992e+00 8.096325553999999869e+00 0.000000000000000000e+00 -1.658309436999999997e+00 2.563180469000000183e+00 7.454051691000000091e+00
6.166995520999999592e+00 0.000000000000000000e+00 0.000000000000000000e+00 -1.714483846999999894e+00 7.880145908000000254e+00 0.000000000000000000e+00 -1.639264747999999994e+00 2.358958079000000208e+00 7.393569035999999706e+00
6.166351864000000127e+00 0.000000000000000000e+00 0.000000000000000000e+00 -1.574784101000000103e+00 8.016024127999999749e+00 0.000000000000000000e+00 -1.511072597999999934e+00 2.623196849000000164e+00 7.594852230999999954e+00
6.217613260000000253e+00 0.000000000000000000e+00 0.000000000000000000e+00 -1.540396539000000065e+00 8.052480648999999602e+00 0.000000000000000000e+00 -1.632764944000000051e+00 2.677320320999999836e+00 7.598229737999999678e+00
6.299560244000000253e+00 0.000000000000000000e+00 0.000000000000000000e+00 -1.597476356999999902e+00 8.115004429000000741e+00 0.000000000000000000e+00 -1.652807294999999899e+00 2.754421081999999910e+00 7.789437512000000119e+00
6.237436139999999796e+00 0.000000000000000000e+00 0.000000000000000000e+00 -1.551985756999999966e+00 8.126243495000000649e+00 0.000000000000000000e+00 -1.536637903999999999e+00 2.694433786999999914e+00 7.697967855999999998e+00
6.172500347999999804e+00 0.000000000000000000e+00 0.000000000000000000e+00 -1.557436178999999976e+00 8.033472495999999907e+00 0.000000000000000000e+00 -1.543155183000000097e+00 2.690380682999999884e+00 7.556384171999999566e+00
6.383023259999999865e+00 0.000000000000000000e+00 0.000000000000000000e+00 -1.461739726000000017e+00 8.108872074000000651e+00 0.000000000000000000e+00 -1.712196014999999960e+00 2.679349865999999913e+00 7.772395237999999651e+00
6.222800321000000245e+00 0.000000000000000000e+00 0.000000000000000000e+00 -1.580751782000000105e+00 8.029778663000000094e+00 0.000000000000000000e+00 -1.570076295000000011e+00 2.651213579999999848e+00 7.579817494000000266e+00
6.140023226000000278e+00 0.000000000000000000e+00 0.000000000000000000e+00 -1.545035406000000000e+00 7.961747929000000390e+00 0.000000000000000000e+00 -1.527755755000000049e+00 2.627509263999999956e+00 7.526412190000000280e+00
6.371819023999999665e+00 0.000000000000000000e+00 0.000000000000000000e+00 -1.602838256999999933e+00 7.923255429000000127e+00 0.000000000000000000e+00 -1.563796289999999978e+00 2.616327527999999791e+00 7.693695082999999713e+00
6.273723058999999935e+00 0.000000000000000000e+00 0.000000000000000000e+00 -1.571761503000000060e+00 8.125398148000000376e+00 0.000000000000000000e+00 -1.560497762000000010e+00 2.710185662999999856e+00 7.697427100999999716e+00
6.319439587999999830e+00 0.000000000000000000e+00 0.000000000000000000e+00 -1.636201019999999895e+00 7.743065555000000266e+00 0.000000000000000000e+00 -1.612896493000000042e+00 2.051725933999999807e+00 7.509773967000000106e+00
6.134530268999999869e+00 0.000000000000000000e+00 0.000000000000000000e+00 -1.504218309999999947e+00 8.004476966000000360e+00 0.000000000000000000e+00 -1.518665346999999999e+00 2.662049060000000189e+00 7.522520402999999689e+00
6.268637228000000228e+00 0.000000000000000000e+00 0.000000000000000000e+00 -1.609725859999999953e+00 8.126911657999999150e+00 0.000000000000000000e+00 -1.581304787000000101e+00 2.574109022000000024e+00 7.742323228000000057e+00
6.201810680000000353e+00 0.000000000000000000e+00 0.000000000000000000e+00 -1.555374146999999985e+00 8.019097848999999556e+00 0.000000000000000000e+00 -1.539517365000000026e+00 2.651948165999999940e+00 7.605854446999999574e+00
6.141772280999999722e+00 0.000000000000000000e+00 0.000000000000000000e+00 -1.899209471000000038e+00 8.255387421000000003e+00 0.000000000000000000e+00 -1.043083981000000104e+00 3.032074779999999858e+00 7.499532388000000438e+00
6.131122262999999961e+00 0.000000000000000000e+00 0.000000000000000000e+00 -1.601958889000000053e+00 7.996903139999999688e+00 0.000000000000000000e+00 -1.594776686999999971e+00 2.682710618000000213e+00 7.430198485000000019e+00
6.195697876999999743e+00 0.000000000000000000e+00 0.000000000000000000e+00 -1.540337459999999936e+00 8.011436515999999841e+00 0.000000000000000000e+00 -1.531273910999999988e+00 2.644704860000000046e+00 7.586754299999999951e+00
6.179443970000000341e+00 0.000000000000000000e+00 0.000000000000000000e+00 -1.686530956999999997e+00 7.775809317000000220e+00 0.000000000000000000e+00 -1.620759046999999953e+00 2.392388110999999817e+00 7.380076306000000308e+00
6.193805436999999969e+00 0.000000000000000000e+00 0.000000000000000000e+00 -1.449773069999999997e+00 8.164458269000000712e+00 0.000000000000000000e+00 -1.580738315000000060e+00 2.693035829999999908e+00 7.631531207000000094e+00
6.329231361999999805e+00 0.000000000000000000e+00 0.000000000000000000e+00 -1.813180409999999965e+00 8.115380100999999513e+00 0.000000000000000000e+00 -1.558603312000000019e+00 2.504580107000000222e+00 7.720428827000000105e+00
6.205714334999999693e+00 0.000000000000000000e+00 0.000000000000000000e+00 -1.563166891999999919e+00 8.053599004000000505e+00 0.000000000000000000e+00 -1.577815240000000063e+00 2.684580658999999869e+00 7.626732253000000128e+00
6.317583566999999789e+00 0.000000000000000000e+00 0.000000000000000000e+00 -1.663344688000000016e+00 8.090837328999999301e+00 0.000000000000000000e+00 -1.579951064999999932e+00 2.686529866999999960e+00 7.723817666999999609e+00
6.226215254999999615e+00 0.000000000000000000e+00 0.000000000000000000e+00 -1.540136457000000014e+00 8.124282482999999999e+00 0.000000000000000000e+00 -1.653650644999999919e+00 2.720124844999999958e+00 7.749828739999999883e+00
