1.720571999999999946e+01 9.902620000000000644e+00 6.988410000000000011e+00 5.719839999999999591e+00 8.208320000000000505e+00 2.092130000000000045e+00 7.376640000000000086e+00 9.016659999999999897e+00 4.587500000000000355e+00 5.803040000000000198e+00 5.044810000000000016e+00 6.999530000000000030e+00 2.869940000000000158e+00 3.272879999999999789e+00 2.311879999999999935e+00 2.990149999999999864e+00 5.044330000000000425e+00 4.041000000000000147e-02 4.393010000000000304e+00 5.791929999999999801e+00 2.418829999999999814e+00 5.723449999999999704e+00 6.553720000000000212e+00 4.656830000000000247e+00 7.120149999999999757e+00 2.579559999999999853e+00 6.920770000000000088e+00 8.664450000000000429e+00 8.226240000000000663e+00 2.232320000000000082e+00 5.643379999999999619e+00 1.736809999999999965e+00 4.472290000000000099e+00 4.344979999999999620e+00 2.374979999999999869e+00 4.812000000000000305e-02 5.596460000000000434e+00 3.410109999999999975e+00 2.372250000000000192e+00 7.378110000000000390e+00 4.149060000000000414e+00 4.548470000000000013e+00 5.704130000000000145e+00 5.083029999999999937e+00 3.037000000000000116e-02 7.113870000000000360e+00 5.821889999999999787e+00 2.263069999999999915e+00 8.743869999999999365e+00 6.561460000000000292e+00 4.769379999999999953e+00 1.454208000000000034e+01 9.902070000000000149e+00 6.873310000000000031e+00 1.157586000000000048e+01 8.336470000000000269e+00 2.412279999999999980e+00 8.712849999999999540e+00 1.674400000000000110e+00 4.620919999999999916e+00 7.304660000000000153e+00 2.451810000000000045e+00 1.824999999999999956e-01 8.553010000000000446e+00 3.290119999999999933e+00 2.371589999999999865e+00 1.001726000000000028e+01 4.124640000000000306e+00 4.598230000000000040e+00 1.302186000000000021e+01 7.506820000000000270e+00 6.998179999999999623e+00 1.019717999999999947e+01 5.844599999999999795e+00 2.425479999999999858e+00 1.153617999999999988e+01 6.694429999999999659e+00 4.695700000000000429e+00 2.910530000000000062e+00 1.608270000000000088e+00 1.024790000000000090e+00 4.210069999999999979e+00 2.622529999999999806e+00 3.504669999999999952e+00 5.704889999999999795e+00 3.303840000000000110e+00 5.763530000000000264e+00 4.264689999999999870e+00 4.055150000000000254e+00 1.048750000000000071e+00 5.719529999999999781e+00 5.012120000000000353e+00 3.508449999999999847e+00 7.184020000000000294e+00 5.847789999999999822e+00 5.843659999999999854e+00 5.916920000000000179e+00 6.693959999999999688e+00 1.113730000000000109e+00 7.199320000000000164e+00 7.563559999999999839e+00 3.452710000000000168e+00 8.667299999999999116e+00 8.339700000000000557e+00 5.983869999999999578e+00 5.698579999999999757e+00 1.535209999999999964e+00 1.336310000000000109e+00 7.100100000000000300e+00 2.651499999999999968e+00 3.539680000000000160e+00 8.702939999999999898e+00 3.290020000000000167e+00 5.904180000000000206e+00 7.157239999999999824e+00 4.104239999999999888e+00 1.222120000000000095e+00 8.694630000000000081e+00 5.200689999999999813e+00 3.519499999999999851e+00 1.020048000000000066e+01 5.771959999999999980e+00 5.750270000000000437e+00 8.773880000000000123e+00 6.597870000000000346e+00 1.130319999999999991e+00 1.006514999999999915e+01 7.479739999999999611e+00 3.609440000000000204e+00 1.153458000000000006e+01 8.459049999999999514e+00 5.853069999999999773e+00 8.646620000000000417e+00 1.680679999999999952e+00 1.176600000000000090e+00 9.928710000000000591e+00 2.419470000000000010e+00 3.566469999999999807e+00 1.172588000000000008e+01 3.461899999999999977e+00 5.920720000000000205e+00 1.005217000000000027e+01 4.064630000000000187e+00 1.278340000000000032e+00 1.166558000000000028e+01 4.912440000000000140e+00 3.600140000000000118e+00 1.301257999999999981e+01 5.947739999999999583e+00 5.809560000000000279e+00 1.163118000000000052e+01 6.513449999999999740e+00 1.440290000000000070e+00 1.302937999999999974e+01 7.416290000000000049e+00 3.470169999999999977e+00 1.449657999999999980e+01 8.325620000000000687e+00 5.926750000000000185e+00
8.744759999999999422e+00 1.003712999999999944e+01 7.078009999999999913e+00 1.019961999999999946e+01 9.033299999999999663e-01 2.397359999999999935e+00 7.206140000000000434e+00 9.140079999999999316e+00 4.698070000000000412e+00 1.009262000000000015e+01 2.396090000000000053e+00 9.568000000000000116e-02 1.137601000000000084e+01 3.473549999999999915e+00 2.315240000000000187e+00 7.317149999999999821e+00 7.524750000000000050e+00 7.102699999999999569e+00 4.437899999999999956e+00 5.798910000000000231e+00 2.346600000000000019e+00 5.909200000000000230e+00 6.804649999999999643e+00 4.766709999999999781e+00 1.161011000000000060e+01 9.939899999999999736e+00 7.002930000000000099e+00 8.649670000000000414e+00 8.343049999999999855e+00 2.339669999999999916e+00 1.009820999999999991e+01 9.068860000000000809e+00 4.711979999999999613e+00 4.255160000000000053e+00 2.412850000000000161e+00 5.913999999999999813e-02 5.990109999999999602e+00 3.404150000000000009e+00 2.385209999999999830e+00 7.363100000000000200e+00 4.385309999999999597e+00 4.769750000000000156e+00 1.014649999999999963e+01 7.620090000000000252e+00 7.075700000000000323e+00 7.200249999999999595e+00 5.948179999999999801e+00 2.402979999999999894e+00 8.529489999999999128e+00 6.655990000000000073e+00 4.691019999999999968e+00 5.909259999999999735e+00 4.186000000000000137e-02 6.961000000000000520e-02 7.377270000000000216e+00 8.692699999999999871e-01 2.368889999999999940e+00 1.308910999999999980e+01 9.068530000000000868e+00 4.758320000000000327e+00 1.157240999999999964e+01 4.936519999999999797e+00 7.039229999999999876e+00 8.797280000000000655e+00 3.350630000000000219e+00 2.376430000000000042e+00 1.025910999999999973e+01 4.242020000000000124e+00 4.725080000000000169e+00 8.749919999999999476e+00 4.975109999999999921e+00 1.708000000000000143e-02 1.000587999999999944e+01 5.935319999999999929e+00 2.436840000000000117e+00 1.166450999999999993e+01 6.671549999999999869e+00 4.625589999999999868e+00 2.780679999999999819e+00 1.688930000000000042e+00 1.333159999999999901e+00 4.435089999999999755e+00 2.441759999999999931e+00 3.516529999999999934e+00 5.920309999999999739e+00 3.423299999999999788e+00 5.993249999999999744e+00 4.413389999999999702e+00 4.161059999999999981e+00 1.217219999999999969e+00 5.738290000000000113e+00 5.079799999999999649e+00 3.635040000000000049e+00 7.254839999999999733e+00 5.878890000000000171e+00 5.954049999999999621e+00 5.849380000000000024e+00 6.626669999999999838e+00 1.208139999999999992e+00 7.113290000000000113e+00 7.492379999999999818e+00 3.657099999999999795e+00 8.634069999999999467e+00 8.463860000000000383e+00 5.894960000000000200e+00 5.699930000000000163e+00 1.638980000000000103e+00 1.046359999999999957e+00 7.284919999999999618e+00 2.741210000000000147e+00 3.525580000000000158e+00 8.848710000000000520e+00 3.134759999999999991e+00 5.872029999999999639e+00 7.283159999999999634e+00 4.103550000000000253e+00 1.141399999999999970e+00 8.739850000000000563e+00 5.137880000000000003e+00 3.647339999999999804e+00 1.014180999999999955e+01 5.877589999999999648e+00 5.871290000000000120e+00 8.492010000000000502e+00 6.691910000000000025e+00 1.190520000000000023e+00 1.006943000000000055e+01 7.548840000000000217e+00 3.510670000000000179e+00 1.147700999999999993e+01 8.345760000000000289e+00 5.873140000000000249e+00 8.798379999999999868e+00 1.675289999999999946e+00 1.186979999999999924e+00 1.028021000000000029e+01 2.525030000000000108e+00 3.587930000000000064e+00 1.159961000000000020e+01 3.392220000000000013e+00 5.957480000000000331e+00 1.012345999999999968e+01 4.236970000000000347e+00 1.245230000000000059e+00 1.151150999999999947e+01 5.051840000000000330e+00 3.387129999999999974e+00 1.315030999999999928e+01 5.904160000000000075e+00 5.919640000000000235e+00 1.194411000000000023e+01 6.826270000000000060e+00 1.211049999999999960e+00 1.315421000000000085e+01 7.498579999999999579e+00 3.626279999999999948e+00 1.445370999999999917e+01 8.343650000000000233e+00 6.177699999999999747e+00
1.288663999999999987e+01 7.381870000000000154e+00 1.215999999999999998e-01 5.775890000000000413e+00 8.220269999999999300e+00 2.369289999999999896e+00 1.137843999999999944e+01 1.816759999999999931e+00 4.632929999999999993e+00 5.738050000000000317e+00 5.013930000000000220e+00 6.964690000000000047e+00 1.137034000000000056e+01 3.436189999999999856e+00 2.252780000000000005e+00 2.926649999999999974e+00 4.875799999999999912e+00 1.514000000000000068e-02 1.287148999999999965e+01 5.982770000000000366e+00 2.452319999999999833e+00 5.722260000000000346e+00 6.416780000000000150e+00 4.848600000000000243e+00 7.105830000000000091e+00 7.357910000000000394e+00 4.116999999999999826e-02 8.411649999999999849e+00 8.215090000000000003e+00 2.436609999999999943e+00 1.004972000000000065e+01 9.120720000000000383e+00 4.729400000000000048e+00 8.617789999999999395e+00 4.724149999999999849e+00 6.877580000000000027e+00 5.701789999999999914e+00 3.385510000000000019e+00 2.294700000000000184e+00 7.112070000000000114e+00 4.119580000000000020e+00 4.440719999999999779e+00 9.802960000000000562e+00 7.339039999999999786e+00 6.965460000000000207e+00 7.185050000000000381e+00 5.853679999999999772e+00 2.257200000000000095e+00 8.488609999999999545e+00 6.580140000000000100e+00 4.456339999999999968e+00 1.020964999999999989e+01 7.459959999999999702e+00 1.333900000000000086e-01 7.128440000000000332e+00 1.080570000000000030e+00 2.305270000000000152e+00 1.285483999999999938e+01 9.047499999999999432e+00 4.658479999999999954e+00 1.148223999999999911e+01 4.947519999999999918e+00 6.908500000000000085e+00 8.508779999999999788e+00 3.315119999999999845e+00 2.244390000000000107e+00 9.914830000000000254e+00 4.216120000000000090e+00 4.597940000000000360e+00 1.280593000000000004e+01 7.610850000000000115e+00 6.946600000000000108e+00 9.973489999999999966e+00 5.714959999999999596e+00 2.348780000000000090e+00 1.146644000000000041e+01 6.808900000000000396e+00 4.724179999999999602e+00 2.926520000000000010e+00 1.683259999999999978e+00 1.063749999999999973e+00 4.381079999999999863e+00 2.405879999999999797e+00 3.547730000000000050e+00 5.782189999999999941e+00 3.185919999999999863e+00 5.776030000000000442e+00 4.250469999999999970e+00 4.260239999999999583e+00 1.341749999999999998e+00 5.824049999999999727e+00 4.893469999999999764e+00 3.521780000000000133e+00 7.189090000000000202e+00 5.714900000000000091e+00 5.581760000000000055e+00 5.663420000000000343e+00 6.639140000000000263e+00 1.362829999999999986e+00 7.004929999999999879e+00 7.519800000000000040e+00 3.566440000000000055e+00 8.542109999999999204e+00 8.425570000000000448e+00 6.015100000000000335e+00 5.751579999999999693e+00 1.784869999999999957e+00 1.109169999999999989e+00 7.170650000000000190e+00 2.373120000000000118e+00 3.506720000000000059e+00 8.552649999999999864e+00 3.362130000000000063e+00 5.745630000000000237e+00 7.173750000000000071e+00 4.184059999999999668e+00 1.267179999999999973e+00 8.585879999999999512e+00 4.960020000000000095e+00 3.533830000000000027e+00 9.944110000000000227e+00 5.961850000000000094e+00 5.812020000000000408e+00 8.467230000000000700e+00 6.743420000000000414e+00 1.231449999999999934e+00 9.930550000000000210e+00 7.401839999999999975e+00 3.312650000000000095e+00 1.134524000000000044e+01 8.247930000000000206e+00 5.973069999999999879e+00 8.693669999999999121e+00 1.788270000000000026e+00 1.035220000000000029e+00 9.986840000000000828e+00 2.447839999999999794e+00 3.418629999999999836e+00 1.135894000000000048e+01 3.489310000000000134e+00 5.799400000000000333e+00 9.873519999999999186e+00 4.082770000000000010e+00 1.297350000000000003e+00 1.133963999999999928e+01 5.036299999999999777e+00 3.471929999999999961e+00 1.281494000000000000e+01 5.864300000000000068e+00 5.716820000000000235e+00 1.158704000000000001e+01 6.493730000000000224e+00 1.214990000000000014e+00 1.290094000000000030e+01 7.468259999999999899e+00 3.499309999999999921e+00 1.435674000000000028e+01 8.385500000000000398e+00 5.840690000000000381e+00
4.463580000000000325e+00 7.447980000000000267e+00 4.658000000000000335e-02 1.006058999999999948e+01 8.541199999999999903e-01 2.303100000000000147e+00 7.206940000000000346e+00 9.086019999999999541e+00 4.579869999999999663e+00 1.444049000000000049e+01 5.151959999999999873e+00 6.972940000000000360e+00 2.888040000000000163e+00 3.290540000000000020e+00 2.275869999999999838e+00 1.578409000000000084e+01 7.803580000000000183e+00 6.830919999999999881e+00 4.376599999999999824e+00 5.840419999999999945e+00 2.430039999999999978e+00 1.435258999999999929e+01 6.854779999999999873e+00 4.711949999999999861e+00 2.965939999999999799e+00 9.177000000000000435e-02 2.058000000000000107e-02 4.247349999999999959e+00 9.096800000000000441e-01 2.287529999999999841e+00 5.688349999999999795e+00 1.733810000000000073e+00 4.606049999999999756e+00 8.615199999999999747e+00 5.092679999999999652e+00 6.979930000000000412e+00 5.689860000000000362e+00 3.380440000000000111e+00 2.292990000000000084e+00 7.261000000000000121e+00 4.174070000000000391e+00 4.740700000000000358e+00 5.662849999999999717e+00 5.030000000000000249e+00 2.384999999999999967e-02 7.112160000000000259e+00 5.860079999999999956e+00 2.394460000000000033e+00 8.686550000000000438e+00 6.726320000000000299e+00 4.591700000000000337e+00 1.426199000000000083e+01 1.003982000000000063e+01 6.924909999999999677e+00 1.132208999999999932e+01 8.309770000000000323e+00 2.322589999999999932e+00 8.550129999999999342e+00 1.732099999999999973e+00 4.642050000000000232e+00 7.221140000000000114e+00 2.589339999999999975e+00 2.707700000000000107e-01 8.670080000000000453e+00 3.284720000000000084e+00 2.150980000000000114e+00 1.021738999999999997e+01 4.049220000000000041e+00 4.724809999999999732e+00 1.296049000000000007e+01 7.653279999999999639e+00 6.879039999999999822e+00 1.005649000000000015e+01 5.828949999999999854e+00 2.304570000000000007e+00 1.147109000000000023e+01 6.565190000000000303e+00 4.608209999999999695e+00 2.927750000000000075e+00 1.790499999999999980e+00 1.204409999999999981e+00 4.293639999999999901e+00 2.427000000000000046e+00 3.485850000000000115e+00 5.807360000000000078e+00 3.416980000000000128e+00 5.878120000000000012e+00 4.462110000000000021e+00 4.269140000000000157e+00 1.213090000000000002e+00 5.670519999999999783e+00 5.060369999999999813e+00 3.522219999999999906e+00 7.332729999999999748e+00 5.956640000000000157e+00 5.828529999999999767e+00 5.771770000000000067e+00 6.774919999999999831e+00 1.072689999999999921e+00 6.870449999999999946e+00 7.553630000000000067e+00 3.337169999999999970e+00 8.640190000000000481e+00 8.596769999999999357e+00 5.881420000000000314e+00 5.647470000000000212e+00 1.459060000000000024e+00 1.254289999999999905e+00 7.164270000000000138e+00 2.641570000000000196e+00 3.540099999999999802e+00 8.751480000000000814e+00 3.395049999999999901e+00 5.937299999999999578e+00 7.165449999999999875e+00 4.327300000000000146e+00 1.207089999999999996e+00 8.817019999999999413e+00 4.993719999999999715e+00 3.506120000000000125e+00 1.027959000000000067e+01 5.874039999999999928e+00 5.816489999999999938e+00 8.525029999999999220e+00 6.700289999999999857e+00 1.313269999999999937e+00 1.001129000000000069e+01 7.534909999999999997e+00 3.593240000000000212e+00 1.144439000000000028e+01 8.334929999999999950e+00 5.880840000000000067e+00 8.434770000000000323e+00 1.585739999999999927e+00 1.244869999999999921e+00 9.891569999999999752e+00 2.408230000000000093e+00 3.537580000000000169e+00 1.168059000000000047e+01 3.394359999999999822e+00 5.566060000000000230e+00 1.012528999999999968e+01 4.124010000000000176e+00 1.184250000000000025e+00 1.151309000000000005e+01 5.076130000000000031e+00 3.391809999999999992e+00 1.308289000000000080e+01 5.863100000000000200e+00 5.920749999999999957e+00 1.143819000000000052e+01 6.801029999999999909e+00 9.800999999999999712e-01 1.283899000000000079e+01 7.526670000000000194e+00 3.522650000000000059e+00 1.424198999999999948e+01 8.407939999999999969e+00 5.744399999999999729e+00
1.280499999999999972e+01 7.276779999999999582e+00 1.037099999999999966e-01 1.427049000000000056e+01 8.053209999999999980e+00 2.452500000000000124e+00 1.137269000000000041e+01 1.843250000000000055e+00 4.728250000000000064e+00 5.804560000000000386e+00 4.801249999999999574e+00 6.856279999999999930e+00 2.959340000000000082e+00 3.130500000000000060e+00 2.282179999999999875e+00 7.223290000000000433e+00 7.284860000000000113e+00 6.777300000000000324e+00 4.378969999999999807e+00 5.778539999999999566e+00 2.167279999999999873e+00 5.844439999999999635e+00 6.399840000000000195e+00 4.556090000000000195e+00 7.207469999999999821e+00 7.327130000000000365e+00 9.282999999999999585e-02 8.515370000000000772e+00 8.259339999999999904e+00 2.513570000000000082e+00 5.788569999999999993e+00 1.844799999999999995e+00 4.954889999999999795e+00 4.430959999999999788e+00 2.507490000000000219e+00 3.299999999999999982e-03 5.588180000000000369e+00 3.355939999999999923e+00 2.344259999999999788e+00 7.008110000000000284e+00 4.186840000000000117e+00 4.635970000000000368e+00 1.001584000000000074e+01 7.434599999999999653e+00 6.891479999999999606e+00 7.267710000000000115e+00 5.752699999999999925e+00 2.235669999999999824e+00 8.751310000000000144e+00 6.470720000000000027e+00 4.635049999999999670e+00 1.005663000000000018e+01 2.549420000000000019e+00 6.920320000000000249e+00 7.205160000000000231e+00 9.339100000000000179e-01 2.555390000000000050e+00 8.563510000000000844e+00 1.853960000000000052e+00 4.533669999999999867e+00 7.271499999999999631e+00 2.359849999999999781e+00 8.809999999999999776e-02 8.575670000000000570e+00 3.370420000000000194e+00 2.211619999999999919e+00 1.010909000000000013e+01 4.192389999999999617e+00 4.706459999999999866e+00 8.660099999999999909e+00 4.863999999999999879e+00 4.954999999999999682e-02 9.962410000000000210e+00 5.907460000000000377e+00 2.242919999999999803e+00 1.136148999999999987e+01 6.616789999999999949e+00 4.537209999999999965e+00 2.708169999999999966e+00 1.517889999999999961e+00 1.264969999999999928e+00 4.278330000000000410e+00 2.464869999999999894e+00 3.462909999999999933e+00 5.590290000000000425e+00 3.385060000000000180e+00 5.762500000000000178e+00 4.323710000000000164e+00 4.023279999999999745e+00 1.137229999999999963e+00 5.640310000000000379e+00 4.904560000000000031e+00 3.453530000000000211e+00 7.268349999999999866e+00 5.732440000000000424e+00 5.750239999999999796e+00 5.801479999999999748e+00 6.426859999999999573e+00 1.110409999999999897e+00 7.267970000000000041e+00 7.336710000000000065e+00 3.456020000000000092e+00 8.558020000000000849e+00 8.246169999999999334e+00 5.712909999999999933e+00 5.645229999999999748e+00 1.498450000000000060e+00 1.202560000000000073e+00 6.982350000000000279e+00 2.530660000000000132e+00 3.542800000000000171e+00 8.607829999999999870e+00 3.502580000000000027e+00 5.816749999999999865e+00 7.229449999999999932e+00 4.058300000000000018e+00 1.062110000000000110e+00 8.493380000000000152e+00 4.859230000000000160e+00 3.565999999999999837e+00 1.003008999999999951e+01 5.718420000000000059e+00 5.939090000000000202e+00 8.542040000000000077e+00 6.690430000000000099e+00 1.225200000000000067e+00 1.006789000000000023e+01 7.442009999999999792e+00 3.470429999999999904e+00 1.153729000000000049e+01 8.181229999999999336e+00 5.941349999999999909e+00 8.634339999999999904e+00 1.570910000000000029e+00 1.301309999999999967e+00 9.978189999999999671e+00 2.517590000000000217e+00 3.523810000000000109e+00 1.145018999999999920e+01 3.420710000000000139e+00 5.912600000000000300e+00 9.985810000000000741e+00 3.964409999999999989e+00 1.029570000000000096e+00 1.143529000000000018e+01 4.877169999999999561e+00 3.374130000000000074e+00 1.280758999999999936e+01 5.671579999999999622e+00 5.661649999999999849e+00 1.152899000000000029e+01 6.455269999999999619e+00 9.862800000000000455e-01 1.298518999999999934e+01 7.318719999999999892e+00 3.463600000000000012e+00 1.419928999999999952e+01 8.344150000000000844e+00 5.781130000000000102e+00
1.259042999999999957e+01 7.411270000000000024e+00 9.457999999999999741e-02 9.783469999999999445e+00 8.768200000000000438e-01 2.234300000000000175e+00 1.118022999999999989e+01 1.614270000000000094e+00 4.528179999999999872e+00 5.567890000000000228e+00 4.904080000000000439e+00 6.850959999999999717e+00 2.791040000000000187e+00 3.185470000000000024e+00 2.334270000000000067e+00 1.535393000000000008e+01 7.479390000000000427e+00 6.882939999999999614e+00 1.272450000000000081e+01 5.774519999999999875e+00 2.457019999999999982e+00 5.815990000000000215e+00 6.773550000000000182e+00 4.508659999999999890e+00 7.215309999999999668e+00 7.382069999999999688e+00 4.660000000000000080e-03 8.431139999999999191e+00 8.330249999999999488e+00 2.364090000000000025e+00 5.596280000000000143e+00 1.757360000000000033e+00 4.751719999999999722e+00 8.457850000000000534e+00 4.908870000000000289e+00 6.941639999999999588e+00 5.615190000000000126e+00 3.271539999999999893e+00 2.243720000000000159e+00 7.057170000000000165e+00 4.078299999999999592e+00 4.576590000000000380e+00 5.576839999999999797e+00 5.135919999999999597e+00 7.749999999999999944e-02 7.206389999999999851e+00 5.797970000000000290e+00 2.296339999999999826e+00 8.525510000000000588e+00 6.732960000000000278e+00 4.644449999999999967e+00 9.860580000000000567e+00 7.524560000000000137e+00 6.040999999999999842e-02 1.123773000000000089e+01 8.232720000000000482e+00 2.445199999999999818e+00 8.535849999999999937e+00 1.641100000000000003e+00 4.672659999999999592e+00 7.186580000000000190e+00 2.507810000000000095e+00 7.606000000000000261e-02 8.563370000000000815e+00 3.375080000000000080e+00 2.318630000000000191e+00 9.833999999999999631e+00 4.193380000000000329e+00 4.747770000000000046e+00 1.270762999999999998e+01 7.402099999999999902e+00 6.946369999999999933e+00 9.849809999999999732e+00 5.847380000000000244e+00 2.485819999999999919e+00 1.139123000000000019e+01 6.648100000000000342e+00 4.679770000000000429e+00 2.874369999999999870e+00 1.680150000000000032e+00 1.174269999999999925e+00 4.264149999999999885e+00 2.551709999999999923e+00 3.421959999999999891e+00 5.426510000000000389e+00 3.250140000000000029e+00 5.769140000000000157e+00 4.271189999999999820e+00 4.085499999999999687e+00 1.189189999999999969e+00 5.605660000000000309e+00 4.983089999999999797e+00 3.587359999999999882e+00 6.967010000000000147e+00 5.840309999999999668e+00 5.823590000000000266e+00 5.628610000000000113e+00 6.869749999999999801e+00 1.092889999999999917e+00 7.047850000000000392e+00 7.573089999999999655e+00 3.350630000000000219e+00 8.379699999999999704e+00 8.347879999999999967e+00 5.657700000000000173e+00 5.799780000000000157e+00 1.535719999999999974e+00 1.180649999999999977e+00 6.953289999999999971e+00 2.514009999999999856e+00 3.527610000000000134e+00 8.258440000000000225e+00 3.197420000000000151e+00 5.913999999999999702e+00 7.108159999999999812e+00 4.259599999999999831e+00 1.228469999999999951e+00 8.370549999999999713e+00 5.013880000000000337e+00 3.531239999999999934e+00 9.922790000000000887e+00 5.744379999999999598e+00 5.943120000000000402e+00 8.438309999999999533e+00 6.686969999999999636e+00 1.201349999999999918e+00 9.898500000000000298e+00 7.369609999999999772e+00 3.481970000000000010e+00 1.125603000000000087e+01 8.276130000000000209e+00 5.892629999999999590e+00 8.636160000000000281e+00 1.574480000000000102e+00 9.728900000000000325e-01 9.872149999999999537e+00 2.604769999999999808e+00 3.428290000000000060e+00 1.120803000000000083e+01 3.257120000000000015e+00 5.864959999999999951e+00 9.893240000000000478e+00 4.198030000000000150e+00 1.202010000000000023e+00 1.129873000000000083e+01 4.986900000000000333e+00 3.482979999999999965e+00 1.272433000000000014e+01 5.714190000000000325e+00 5.848250000000000171e+00 1.123142999999999958e+01 6.587659999999999627e+00 1.283959999999999990e+00 1.285083000000000020e+01 7.413310000000000066e+00 3.522829999999999906e+00 1.409223000000000070e+01 8.402580000000000382e+00 5.814829999999999721e+00
4.164670000000000094e+00 7.275730000000000253e+00 2.219000000000000139e-02 5.733620000000000161e+00 8.331530000000000769e+00 2.302220000000000155e+00 1.147503000000000029e+01 1.711149999999999949e+00 4.625709999999999766e+00 5.925729999999999720e+00 5.144820000000000171e+00 6.769400000000000084e+00 1.146963000000000044e+01 3.280539999999999790e+00 2.345400000000000151e+00 1.582657000000000025e+01 7.597349999999999604e+00 6.942700000000000315e+00 4.440549999999999997e+00 5.678720000000000212e+00 2.390050000000000008e+00 1.421823000000000015e+01 6.785999999999999588e+00 4.624290000000000234e+00 7.195149999999999935e+00 7.480780000000000207e+00 8.963000000000000134e-02 8.763270000000000337e+00 8.348050000000000637e+00 2.506520000000000081e+00 5.695369999999999600e+00 1.716169999999999973e+00 4.482149999999999856e+00 8.824320000000000164e+00 5.070820000000000327e+00 6.962760000000000282e+00 5.906509999999999927e+00 3.376090000000000035e+00 2.219469999999999832e+00 7.240020000000000344e+00 4.236460000000000115e+00 4.650760000000000005e+00 1.017168999999999990e+01 7.587080000000000268e+00 6.943369999999999820e+00 7.296140000000000292e+00 5.774189999999999934e+00 2.442219999999999835e+00 8.642810000000000770e+00 6.626780000000000115e+00 4.701780000000000292e+00 5.663719999999999644e+00 1.605399999999999883e-01 2.380000000000000171e-03 1.164730999999999916e+01 8.285470000000000113e+00 2.280980000000000008e+00 8.698309999999999320e+00 1.694420000000000037e+00 4.611880000000000202e+00 1.158724999999999916e+01 4.999670000000000059e+00 6.972819999999999574e+00 8.661849999999999383e+00 3.374159999999999826e+00 2.394589999999999996e+00 1.014392999999999923e+01 4.154029999999999667e+00 4.659049999999999692e+00 8.572549999999999670e+00 5.058819999999999872e+00 1.384100000000000052e-01 1.016802999999999990e+01 5.828120000000000189e+00 2.384510000000000129e+00 1.159792999999999985e+01 6.636960000000000193e+00 4.732940000000000147e+00 2.997349999999999959e+00 1.716930000000000067e+00 1.198649999999999993e+00 4.356309999999999683e+00 2.553319999999999812e+00 3.579009999999999803e+00 5.667860000000000120e+00 3.432220000000000049e+00 5.712170000000000414e+00 4.459859999999999935e+00 4.222520000000000273e+00 1.082340000000000080e+00 5.595030000000000392e+00 5.008720000000000283e+00 3.671940000000000204e+00 7.245280000000000165e+00 5.840029999999999610e+00 5.763510000000000133e+00 5.779550000000000409e+00 6.749539999999999651e+00 9.741199999999999859e-01 7.137950000000000017e+00 7.545919999999999739e+00 3.745559999999999778e+00 8.564230000000000231e+00 8.358810000000000073e+00 5.652210000000000178e+00 5.894350000000000200e+00 1.689040000000000097e+00 1.084219999999999962e+00 7.276279999999999859e+00 2.547860000000000014e+00 3.743110000000000159e+00 8.733380000000000365e+00 3.240069999999999784e+00 6.024009999999999643e+00 7.329349999999999810e+00 4.230500000000000149e+00 1.339480000000000004e+00 8.687659999999999272e+00 5.140279999999999738e+00 3.559719999999999995e+00 1.020883000000000074e+01 5.911529999999999951e+00 5.779749999999999943e+00 8.632649999999999935e+00 6.880410000000000359e+00 1.442989999999999995e+00 1.030932999999999922e+01 7.693699999999999761e+00 3.463519999999999932e+00 1.146653000000000056e+01 8.268200000000000216e+00 5.986100000000000421e+00 8.634479999999999933e+00 1.722110000000000030e+00 1.083620000000000028e+00 9.923840000000000217e+00 2.487389999999999990e+00 3.309579999999999966e+00 1.146443000000000012e+01 3.178589999999999804e+00 5.867919999999999803e+00 1.022743000000000002e+01 4.114889999999999937e+00 1.132789999999999964e+00 1.142783000000000015e+01 4.752349999999999852e+00 3.538670000000000204e+00 1.294272999999999918e+01 6.011190000000000033e+00 6.030330000000000190e+00 1.142122999999999955e+01 6.512690000000000090e+00 1.132889999999999953e+00 1.294893000000000072e+01 7.486439999999999984e+00 3.402379999999999960e+00 1.424882999999999988e+01 8.392379999999999285e+00 5.745730000000000004e+00