2.457799000000000067e+00 1.605207999999999968e+00 5.901180000000000314e-01 1.192031999999999980e+00 1.837579000000000073e+00 3.369959999999999845e+00 -1.987759999999999971e+00 8.021169999999999689e-01 4.100449999999999928e-01 -9.773979999999999890e-01 -2.696120000000000183e-01 -2.593619999999999814e-01 -8.274399999999999533e-01 3.705559999999999965e-01 -1.613099999999999951e-02 -1.216761999999999899e+00 -1.530880999999999936e+00 -3.162670000000000203e-01 -1.576915999999999984e+00 -3.184999999999999897e-03 2.027309999999999945e-01 1.126568000000000014e+00 1.444436000000000053e+00 5.695200000000000262e-02 3.271290000000000031e-01 -1.813283999999999896e+00 -5.768360000000000154e-01 -4.028860000000000219e-01 -8.665920000000000289e-01 7.960009999999999586e-01 1.429902000000000006e+00 -1.696509999999999962e-01 3.011455999999999911e+00 8.270870000000000166e-01 1.200191000000000008e+00 -8.190889999999999560e-01 1.406986000000000070e+00 -9.539109999999999534e-01 -5.891779999999999795e-01 -2.198310000000000208e+00 1.463381999999999961e+00 2.115234000000000059e+00 2.491554999999999964e+00 -1.318500999999999923e+00 -5.047430000000000527e-01 2.657237999999999989e+00 1.575370000000000104e-01 1.006062000000000012e+00 -9.662220000000000253e-01 1.754178999999999933e+00 -4.036250000000000115e-01 -1.469916999999999918e+00 1.367393000000000081e+00 2.440802999999999834e+00 -3.930370000000000252e-01 -9.478959999999999608e-01 -4.237409999999999788e-01 -2.034823999999999966e+00 -1.939758000000000093e+00 1.821045999999999943e+00 -1.826464000000000087e+00 1.361680000000000001e+00 -2.757890999999999870e+00 1.495138999999999996e+00 6.152640000000000331e-01 -1.176061999999999941e+00 1.751724000000000059e+00 6.822270000000000278e-01 1.132708000000000048e+00 -6.341719999999999580e-01 1.517499999999999960e-01 6.052429999999999755e-01 -1.469030999999999976e+00 -7.214239999999999542e-01 -5.657609999999999584e-01 4.669920000000000182e-01 -1.375159999999999993e-01 7.556939999999999769e-01 -7.008999999999999675e-01 6.771270000000000344e-01 1.467327000000000048e+00 1.126940000000000025e-01 -1.709173000000000053e+00 -1.523180000000000089e-01 4.259870000000000045e-01 7.666870000000000074e-01 4.410299999999999776e-01 9.738179999999999614e-01 3.547649999999999970e-01 1.132994000000000057e+00 1.593974000000000002e+00 -3.869210000000000149e-01 -5.555510000000000170e-01 5.795099999999999696e-01 -8.165010000000000323e-01 -1.976870000000000016e-01 -1.631335999999999897e+00 -1.115073999999999899e+00 -6.189989999999999659e-01 2.704920000000000102e-01 -7.706800000000000317e-01 -8.034590000000000343e-01 -1.144751000000000074e+00 -2.678539999999999810e-01 -1.849787000000000070e+00 1.396883000000000097e+00 8.128950000000000342e-01 -1.766988000000000003e+00 9.980360000000000342e-01 -1.979711999999999916e+00 -1.250537000000000010e+00 4.672399999999999887e-01 8.393880000000000230e-01 -1.475414999999999921e+00 -1.321489999999999887e-01 5.362280000000000380e-01 -2.551530000000000187e-01 -4.708749999999999880e-01 -3.090923000000000087e+00 -1.620570000000000066e-01 -9.619159999999999933e-01 -5.106209999999999916e-01 1.461800999999999906e+00 7.213100000000000067e-02 2.067279999999999951e-01 -7.465000000000000281e-03 6.771840000000000082e-01 7.751489999999999769e-01 -8.481520000000000170e-01 5.043809999999999683e-01 -1.501654000000000044e+00 -8.073470000000000368e-01 -2.264499999999999846e-02 -8.290269999999999584e-01 5.631810000000000427e-01 2.098986000000000018e+00 1.847307000000000032e+00 -1.097952999999999957e+00 -2.900513000000000119e+00 -1.201726000000000072e+00 -2.005979999999999985e-01 4.517470000000000097e-01 3.298389999999999933e-01 -3.707199999999999940e-01 -1.916406000000000054e+00 -8.346599999999999853e-02 -5.513909999999999645e-01 -1.175780000000000020e-01 -3.970699999999999785e-01 1.593258999999999981e+00 -1.470670000000000033e-01 1.709418000000000104e+00 -3.021441999999999961e+00 -5.659330000000000194e-01 1.592000000000000082e+00 3.081320000000000170e-01 4.399939999999999962e-01 7.158399999999999486e-02 -8.800719999999999654e-01
5.725810000000000066e-01 5.852159999999999584e-01 -2.032839999999999925e-01 -3.967069999999999763e-01 -1.640163000000000038e+00 7.664999999999999938e-03 5.240639999999999743e-01 1.622751000000000055e+00 8.196059999999999457e-01 1.565681000000000100e+00 1.560432999999999959e+00 -1.667564999999999964e+00 3.682798000000000016e+00 -1.440499999999999892e+00 2.585959999999999925e-01 -7.275199999999999445e-01 4.475509999999999766e-01 7.978450000000000264e-01 -9.470450000000000257e-01 6.270160000000000178e-01 2.794949999999999934e-01 -3.278882999999999992e+00 -1.859849000000000085e+00 1.588845999999999981e+00 7.768300000000000205e-02 7.193009999999999682e-01 6.918609999999999483e-01 2.549200000000000077e-02 1.390767000000000087e+00 -4.429799999999999710e-02 3.030169999999999808e-01 1.733900999999999915e+00 -3.253400000000000181e-01 7.704100000000000392e-01 1.346311999999999953e+00 -1.620459999999999956e-01 -2.710801000000000016e+00 -1.773240000000000094e-01 -7.372339999999999449e-01 -1.373958999999999930e+00 -3.549898999999999916e+00 -2.334050000000000014e-01 2.232540000000000080e-01 -2.197079000000000004e+00 3.134549999999999836e-01 -2.706979999999999942e-01 -9.034180000000000543e-01 -6.949229999999999574e-01 3.041090000000000071e+00 1.415701000000000098e+00 1.685888999999999971e+00 -9.904190000000000493e-01 -1.594970999999999917e+00 -1.703858000000000095e+00 -2.181329999999999936e-01 -5.451810000000000267e-01 -3.155319999999999792e-01 -4.309500000000000136e-02 2.200972000000000151e+00 8.788150000000000128e-01 4.834860000000000269e-01 2.305215000000000014e+00 6.694130000000000358e-01 -1.767722999999999933e+00 4.261510000000000020e-01 3.206629999999999758e-01 -9.299260000000000304e-01 -8.981430000000000247e-01 6.028480000000000505e-01 -1.129548999999999914e+00 -5.847369999999999512e-01 5.273660000000000014e-01 1.189086000000000087e+00 -5.942450000000000232e-01 -8.027670000000000083e-01 -4.232770000000000143e-01 -3.974909999999999832e-01 1.373440999999999912e+00 1.609280000000000044e+00 8.165729999999999933e-01 -1.458849000000000062e+00 -3.380900000000000016e-01 -6.996700000000000141e-02 8.576749999999999652e-01 -5.443339999999999845e-01 -3.743049999999999988e-01 -1.515630000000000033e-01 -7.704609999999999514e-01 -7.234899999999999665e-02 -9.784610000000000252e-01 9.449760000000000382e-01 -6.665180000000000549e-01 -1.953759999999999941e-01 8.060070000000000290e-01 2.233120000000000105e-01 8.297280000000000211e-01 1.324230000000000129e-01 3.290719999999999756e-01 -6.675250000000000350e-01 2.391831999999999958e+00 1.248091000000000061e+00 -1.619331000000000076e+00 -7.757400000000000406e-02 -1.033158000000000021e+00 -8.225799999999999779e-02 1.058159999999999989e+00 -3.050109999999999766e-01 1.353582999999999981e+00 1.392211000000000087e+00 -2.347477000000000036e+00 -2.540999999999999856e-03 -1.097205999999999904e+00 1.629960000000000075e+00 6.145880000000000232e-01 4.552169999999999828e-01 2.989180000000000170e-01 1.127839999999999954e-01 -4.454509999999999859e-01 -1.019163999999999959e+00 -1.397513000000000005e+00 1.838410000000000044e-01 -1.721769999999999967e-01 2.612920000000000242e-01 2.087527000000000132e+00 1.334140000000000048e-01 8.748259999999999925e-01 9.107009999999999827e-01 -8.771800000000000430e-02 -7.724170000000000202e-01 1.018380000000000063e+00 5.286699999999999733e-02 -7.629380000000000051e-01 -1.757894999999999985e+00 1.817399999999999918e-02 1.329252000000000100e+00 -1.298472000000000071e+00 -9.615600000000000536e-02 1.801099999999999923e-02 3.546839999999999993e-01 -7.264129999999999754e-01 -5.904300000000000104e-01 -6.679079999999999462e-01 4.578789999999999805e-01 -5.088529999999999998e-01 1.446770000000000000e-01 4.933029999999999915e-01 1.137883999999999896e+00 -7.230720000000000480e-01 -6.250250000000000528e-01 2.011900000000000147e-02 -3.345412000000000052e+00 -4.081750000000000100e-01 1.489020000000000066e-01 -1.435875000000000012e+00 1.588619000000000003e+00 -4.101870000000000238e-01 1.760928999999999967e+00 7.151399999999999979e-01 -1.885953999999999908e+00
1.582745000000000068e+00 8.017499999999999627e-01 -7.206310000000000215e-01 -1.904487999999999959e+00 1.588073999999999986e+00 2.016340000000000077e-01 1.045749999999999957e+00 -1.075329999999999897e+00 6.856780000000000097e-01 -4.763999999999999901e-01 -1.001568999999999932e+00 2.185400000000000120e-01 1.360416999999999987e+00 -1.622052000000000049e+00 1.239317000000000002e+00 -1.149489999999999956e-01 1.302310999999999996e+00 -2.620810000000000084e-01 3.830089999999999884e-01 -3.332933999999999841e+00 -6.007320000000000437e-01 -7.182150000000000478e-01 3.065822999999999965e+00 -4.210924000000000333e+00 2.742100000000000093e-02 9.196999999999999620e-01 -8.809040000000000203e-01 1.858044999999999947e+00 2.131425999999999821e+00 -1.093989000000000100e+00 -1.285155000000000047e+00 -1.552122000000000002e+00 -7.618030000000000079e-01 -1.265454000000000079e+00 3.638068000000000080e+00 8.458740000000000148e-01 -9.823039999999999550e-01 -5.090360000000000440e-01 -1.369589999999999974e-01 2.213112999999999886e+00 -1.484820999999999946e+00 3.252752000000000088e+00 1.658582999999999918e+00 2.136064999999999880e+00 1.692356999999999889e+00 -2.172698000000000018e+00 -1.708261000000000029e+00 1.304354999999999931e+00 6.120510000000000117e-01 8.000019999999999909e-01 2.535900999999999961e+00 -1.973193999999999892e+00 -9.496839999999999726e-01 -1.192042000000000046e+00 -1.409799999999999942e-01 -3.791297000000000139e+00 -1.071270000000000000e-01 1.153375999999999957e+00 1.665234000000000103e+00 -2.351290000000000047e-01 -3.730899999999999772e-01 2.723723999999999812e+00 3.913170000000000259e-01 1.033940000000000081e+00 -5.401019999999999710e-01 1.446250999999999953e+00 6.323320000000000052e-01 -9.140979999999999661e-01 6.520409999999999817e-01 6.205720000000000125e-01 -1.676698000000000022e+00 1.734782000000000046e+00 5.620460000000000456e-01 1.781039000000000039e+00 -4.244379999999999820e-01 -1.707853999999999983e+00 -1.571504999999999930e+00 -1.581353999999999926e+00 -6.986679999999999557e-01 2.468380000000000019e-01 3.434440000000000270e-01 -1.202229999999999910e+00 8.663429999999999742e-01 2.271779999999999911e-01 -1.149299999999999988e+00 2.294740000000000002e+00 1.357272999999999952e+00 -6.019130000000000313e-01 -1.119647999999999977e+00 -1.707773999999999903e+00 -2.572274999999999867e+00 1.049363999999999963e+00 -5.916460000000000052e-01 3.868059999999999832e-01 6.523459999999999814e-01 4.256348000000000020e+00 9.979559999999999542e-01 7.981679999999999886e-01 -2.348260999999999932e+00 1.985708000000000029e+00 -7.240229999999999722e-01 3.499380000000000268e-01 -7.541510000000000158e-01 -1.227111000000000063e+00 -1.388860999999999901e+00 1.380433000000000021e+00 -1.705575999999999981e+00 -5.712920000000000220e-01 2.718979999999999730e-01 1.481673000000000018e+00 7.463109999999999467e-01 9.631779999999999786e-01 -2.394505999999999801e+00 -4.480609999999999871e-01 -3.582509999999999861e-01 6.110000000000000153e-02 -2.187135000000000051e+00 7.581599999999999451e-02 2.000250000000000083e-01 -1.774410000000000043e+00 1.333090000000000108e-01 -2.263831999999999844e+00 -9.952590000000000048e-01 2.065158999999999967e+00 -1.448444999999999983e+00 -1.880937999999999999e+00 8.391570000000000418e-01 5.901149999999999451e-01 1.777983000000000091e+00 7.116190000000000015e-01 5.158989999999999965e-01 -1.066075000000000106e+00 -1.469599000000000100e+00 -2.292161999999999811e+00 5.926999999999999977e-03 5.070569999999999800e-01 9.477039999999999909e-01 8.498369999999999536e-01 2.273700000000000027e-02 -1.391740999999999895e+00 -1.811770000000000047e-01 2.009406999999999943e+00 1.985775000000000068e+00 -3.658202000000000176e+00 5.751720000000000166e-01 -7.896689999999999543e-01 1.660371999999999959e+00 -3.165979999999999905e-01 -4.814579999999999971e-01 1.677137000000000100e+00 -3.227349999999999941e+00 2.201798999999999840e+00 -1.970930000000000071e+00 -1.321655000000000024e+00 1.579447999999999963e+00 1.397732999999999892e+00 -8.820419999999999927e-01 -4.568740000000000023e-01 2.127850000000000019e+00
-3.230268000000000139e+00 2.814728000000000119e+00 2.435599999999999987e-01 -2.020478999999999914e+00 2.606840000000000268e-01 -4.587559999999999971e-01 -1.547662000000000093e+00 2.116226999999999858e+00 2.536860000000000226e-01 9.996209999999999818e-01 -1.059644999999999948e+00 -1.018170000000000047e-01 -8.839600000000000235e-02 2.314306999999999892e+00 1.068246000000000029e+00 8.140209999999999946e-01 -2.173166000000000153e+00 2.186850999999999878e+00 -1.324694999999999956e+00 7.175820000000000531e-01 -1.311385000000000023e+00 -5.046749999999999847e-01 -1.849590000000000067e+00 -1.641572999999999949e+00 -1.662403000000000075e+00 -1.599758000000000013e+00 4.398619999999999752e-01 2.281489999999999907e-01 -2.083038000000000167e+00 6.703080000000000149e-01 1.953189999999999982e+00 -3.293570000000000109e-01 9.144459999999999811e-01 1.642053999999999903e+00 2.585169999999999968e-01 3.008200000000000110e-02 1.258474000000000093e+00 -2.769630000000000147e-01 2.126084000000000085e+00 -2.669770000000000199e-01 6.860840000000000272e-01 -1.480358999999999980e+00 2.034130000000000216e+00 8.411779999999999813e-01 -1.051001000000000074e+00 5.683500000000000218e-01 3.714270000000000072e-01 -1.053102999999999900e+00 -3.736600000000000338e-02 -1.622942000000000107e+00 9.093259999999999676e-01 2.111063000000000134e+00 6.904620000000000202e-01 1.778885000000000050e+00 1.287212000000000023e+00 -4.883449999999999736e-01 4.089459999999999762e-01 -1.566289999999999905e-01 -1.246323999999999987e+00 -5.584959999999999924e-01 -1.469464000000000103e+00 -6.443969999999999976e-01 -3.925898999999999806e+00 -5.064610000000000500e-01 1.300251000000000046e+00 3.934276999999999802e+00 -1.812321000000000071e+00 1.969097000000000097e+00 -1.836454000000000031e+00 -1.931057999999999941e+00 -1.062740999999999936e+00 1.890822999999999920e+00 -1.463349999999999929e-01 -9.675100000000000366e-02 -1.279389999999999972e-01 1.049549999999999983e+00 2.060608000000000217e+00 5.721270000000000522e-01 -9.315970000000000084e-01 -6.275110000000000410e-01 -1.678604999999999903e+00 -5.209310000000000329e-01 4.605150000000000077e-01 -8.634209999999999940e-01 1.146598999999999924e+00 7.829530000000000101e-01 1.988000000000000184e-03 -2.285356999999999861e+00 -1.329420000000000046e+00 -5.631519999999999859e-01 1.354035000000000100e+00 -2.854800000000000115e-01 8.540860000000000118e-01 -2.092960000000000098e-01 5.581700000000000550e-01 -4.992489999999999983e-01 7.506169999999999787e-01 -6.215610000000000301e-01 1.693351999999999968e+00 3.685166000000000164e+00 -2.227429999999999966e-01 2.955782999999999827e+00 -1.208121999999999918e+00 -3.416107999999999922e+00 -1.919426999999999994e+00 1.028018000000000098e+00 3.062510000000000066e+00 -2.048078999999999983e+00 -5.644780000000000353e-01 -1.109499999999999931e-01 -2.059950000000000114e-01 -1.547090000000000076e+00 6.485469999999999846e-01 -7.920319999999999583e-01 5.663909999999999778e-01 -1.939589999999999925e+00 -2.252490000000000048e-01 -1.822467999999999977e+00 4.836150000000000171e-01 1.058235999999999954e+00 -2.667193999999999843e+00 -1.082241000000000009e+00 1.740594999999999892e+00 7.353650000000000464e-01 -1.540399999999999929e-02 -1.787409000000000026e+00 -5.015260000000000273e-01 4.021199999999999775e-02 -6.403149999999999675e-01 8.802229999999999777e-01 1.406856000000000106e+00 -5.278739999999999544e-01 2.208886999999999823e+00 1.155750000000000055e+00 -6.605820000000000025e-01 2.391577999999999982e+00 1.219025000000000025e+00 -1.194893999999999901e+00 -8.354000000000000314e-02 -7.834449999999999470e-01 1.000896000000000008e+00 -2.904599999999999890e-02 7.814720000000000555e-01 -9.947009999999999463e-01 -9.148999999999999147e-03 -1.076119999999999965e+00 -3.370299999999999963e-01 -5.837740000000000151e-01 6.845860000000000278e-01 -1.605600000000000083e-02 -9.357720000000000482e-01 -1.770828999999999986e+00 5.764080000000000314e-01 -9.806999999999999745e-03 -5.687419999999999698e-01 -1.113760000000000028e-01 1.921645999999999965e+00 6.977999999999999758e-01 1.303374999999999950e+00
2.076004999999999878e+00 2.498871999999999982e+00 -1.338386999999999993e+00 2.056275999999999993e+00 2.805163999999999991e+00 -2.247975999999999974e+00 1.353826999999999892e+00 -1.996963999999999961e+00 -1.006369999999999987e+00 -2.603599999999999803e-01 1.607091000000000047e+00 3.101434999999999942e+00 -2.887646999999999853e+00 2.207663999999999849e+00 -4.182649999999999979e-01 -9.851839999999999486e-01 1.065466999999999942e+00 2.165960000000000107e+00 -1.713425999999999894e+00 -1.417686000000000002e+00 1.511829000000000089e+00 -1.978277000000000063e+00 2.633026999999999784e+00 8.183249999999999691e-01 4.791039999999999743e-01 1.737977000000000105e+00 -5.254199999999999843e-02 2.035242999999999913e+00 -3.767050000000000121e-01 -2.436983000000000121e+00 -1.469052000000000024e+00 -3.079219000000000150e+00 -4.573339999999999961e+00 -1.645470999999999906e+00 -1.361113999999999935e+00 6.068329999999999558e-01 2.370947000000000138e+00 -1.691286000000000067e+00 1.683350000000000124e-01 2.521755000000000191e+00 -1.209921000000000024e+00 -3.301009999999999778e-01 1.273659000000000097e+00 -2.232222000000000151e+00 8.494239999999999569e-01 -1.490757000000000110e+00 -7.182319999999999816e-01 1.302634000000000070e+00 -2.377311000000000174e+00 1.763999000000000095e+00 -1.288930000000000076e-01 -1.376873000000000014e+00 -8.451469999999999816e-01 1.273219000000000101e+00 -1.589963000000000015e+00 1.371999999999999956e-03 -2.653712000000000071e+00 3.867889999999999939e-01 -1.518208000000000002e+00 2.973301000000000194e+00 -1.413500999999999896e+00 2.624836000000000169e+00 7.220100000000000129e-02 1.295900000000000052e+00 -1.292993000000000059e+00 1.927464000000000066e+00 -1.041257000000000099e+00 -4.435220000000000273e-01 -1.342939000000000105e+00 -8.005440000000000333e-01 8.027309999999999723e-01 -3.276247000000000131e+00 2.319259000000000182e+00 -1.769876000000000005e+00 -1.275679999999999870e-01 3.228927000000000103e+00 -7.919800000000000173e-01 2.540594000000000019e+00 5.800440000000000040e-01 2.538540000000000241e-01 -9.505360000000000475e-01 -6.854930000000000190e-01 9.736219999999999875e-01 1.343407999999999936e+00 4.699199999999999905e-02 -1.090099999999999958e-01 1.505902000000000074e+00 -5.487220000000000431e-01 1.365726999999999913e+00 -3.008560000000000123e-01 2.044430000000000136e-01 6.054969999999999519e-01 -1.060853000000000046e+00 -1.585582000000000047e+00 6.889840000000000408e-01 1.789499999999999980e-01 -7.674339999999999495e-01 1.188307999999999920e+00 3.683089999999999975e-01 -2.163772999999999946e+00 -1.334251000000000076e+00 1.429478999999999944e+00 6.168639999999999679e-01 7.988000000000000309e-03 1.074062999999999990e+00 1.835731999999999919e+00 1.756035000000000013e+00 5.820840000000000458e-01 1.728218000000000032e+00 -5.869849999999999790e-01 2.808399999999999785e-01 -3.216399999999999815e-01 -3.515099999999999891e+00 -2.761080000000000201e-01 -2.330399999999999971e-01 3.952390000000000070e-01 1.471594000000000069e+00 1.437103000000000019e+00 1.390574999999999894e+00 -2.639213999999999949e+00 1.516934999999999922e+00 1.743897000000000030e+00 -2.649521000000000015e+00 1.721705000000000041e+00 -2.372079999999999966e+00 -1.572810000000000041e-01 5.752660000000000551e-01 -1.815790000000000015e+00 3.630140000000000033e-01 -8.284359999999999502e-01 9.255729999999999791e-01 -2.138123000000000218e+00 -1.659407999999999994e+00 -2.319509999999999905e-01 -4.956860000000000155e-01 5.041419999999999790e-01 -3.268200000000000272e-02 -1.798900000000000152e-02 4.357489999999999974e-01 -2.358217999999999925e+00 -1.049225999999999992e+00 6.680660000000000487e-01 1.343201000000000089e+00 3.105640000000000067e-01 -7.232070000000000443e-01 1.682479000000000058e+00 -6.737600000000000533e-02 8.822360000000000202e-01 4.947880000000000056e-01 4.940530000000000199e-01 -2.302589999999999915e+00 -8.474749999999999783e-01 2.387194000000000038e+00 -2.409553999999999974e+00 -5.924999999999999711e-02 7.285479999999999734e-01 1.107315000000000049e+00 -5.561000000000000387e-01 -9.346599999999999353e-02
1.623262999999999900e+00 1.147661999999999960e+00 -1.200450999999999935e+00 2.334163000000000210e+00 -1.150134999999999907e+00 -2.519489999999999785e-01 1.856729000000000074e+00 1.190814000000000039e+00 1.365334999999999965e+00 1.136311000000000071e+00 -9.902919999999999501e-01 9.873680000000000234e-01 4.361129999999999729e-01 2.822391999999999790e+00 -9.958869999999999667e-01 1.635431999999999997e+00 -8.919829999999999703e-01 2.475446999999999953e+00 -8.412899999999999545e-02 -4.598659999999999970e-01 -1.489856000000000069e+00 -1.693008000000000068e+00 -2.022063999999999862e+00 1.068723000000000090e+00 -3.626857000000000220e+00 2.149173999999999918e+00 9.457379999999999676e-01 6.121389999999999887e-01 5.950699999999999878e-01 -1.093785000000000007e+00 -1.637059999999999904e-01 -1.242761000000000005e+00 -1.288607999999999976e+00 -1.431016000000000066e+00 3.653850000000000153e-01 1.022518000000000038e+00 1.050982000000000083e+00 1.685820000000000096e-01 1.195716000000000001e+00 -1.065593000000000012e+00 9.691800000000000415e-01 1.358923000000000103e+00 1.131383999999999945e+00 -1.342761000000000093e+00 -6.114579999999999460e-01 -2.674007000000000023e+00 1.036356999999999973e+00 4.948449999999999793e-01 -6.355250000000000066e-01 -9.368769999999999598e-01 6.087409999999999766e-01 7.793679999999999497e-01 -7.927099999999999425e-02 -1.075129999999999975e-01 3.919139999999999846e-01 1.036653000000000047e+00 -6.055690000000000239e-01 -1.774437000000000042e+00 2.457820000000000005e-01 -3.494439999999999769e-01 -8.443060000000000009e-01 -3.501159999999999828e-01 -5.437899999999999956e-01 -1.199681999999999915e+00 -1.437720000000000109e-01 -2.693079999999999918e-01 1.393038999999999916e+00 -5.095199999999999729e-01 -9.161369999999999791e-01 -5.058249999999999691e-01 9.455500000000000016e-02 7.111680000000000224e-01 1.098025999999999947e+00 -1.829469999999999930e+00 -2.720791999999999877e+00 -6.740880000000000205e-01 -6.181950000000000500e-01 9.266590000000000105e-01 3.251899999999999791e-01 -2.372660000000000047e-01 -4.750570000000000070e-01 -1.071657000000000082e+00 -1.679405999999999954e+00 9.465860000000000385e-01 4.905360000000000276e-01 1.144997000000000043e+00 -2.673980000000000246e-01 -1.171809999999999935e-01 1.650978000000000057e+00 -1.086063000000000001e+00 1.285550000000000026e-01 9.335449999999999582e-01 -1.061196000000000028e+00 1.133928999999999965e+00 6.742820000000000480e-01 -6.603360000000000340e-01 -2.655109999999999970e-01 -3.369238999999999873e+00 1.957740000000000036e-01 1.797420000000000129e-01 -4.969140000000000224e-01 1.679389000000000021e+00 -4.497499999999999831e-01 -7.861110000000000042e-01 1.581704999999999917e+00 -8.866119999999999557e-01 7.308799999999999741e-01 3.733409999999999784e-01 1.975487999999999911e+00 -1.924468999999999985e+00 -6.873839999999999950e-01 2.911210000000000075e+00 1.044078000000000062e+00 -1.970455999999999985e+00 1.121280000000000054e-01 -9.535590000000000455e-01 -9.053160000000000096e-01 2.028417000000000137e+00 -4.221799999999999858e-02 7.086590000000000389e-01 -7.946490000000000498e-01 7.626030000000000308e-01 -1.395399000000000056e+00 1.807064999999999921e+00 -6.184469999999999690e-01 -2.974100000000000008e-02 1.084890000000000021e-01 1.442987000000000020e+00 1.445267000000000079e+00 4.197449999999999792e-01 -9.788240000000000274e-01 -1.124821999999999989e+00 -2.437161000000000133e+00 1.666528999999999927e+00 1.998936000000000046e+00 -9.095229999999999704e-01 -1.541533999999999960e+00 1.900250999999999912e+00 -6.160379999999999745e-01 -4.950450000000000128e-01 -6.442609999999999726e-01 -3.568899999999999850e-01 4.495029999999999859e-01 -9.190909999999999913e-01 -3.326180000000000248e-01 4.062040000000000095e-01 1.351008999999999904e+00 -1.189550000000000107e+00 1.760334999999999983e+00 -4.819749999999999868e-01 9.972429999999999906e-01 4.743299999999999739e-01 -8.958490000000000064e-01 -1.950733000000000050e+00 1.571623999999999910e+00 2.375740000000000074e-01 -3.465509999999999979e-01 -8.443629999999999747e-01 -5.307819999999999760e-01
1.086878999999999929e+00 2.616512999999999867e+00 -1.627054999999999918e+00 4.789510000000000156e-01 4.559460000000000179e-01 -1.153194999999999970e+00 2.685480000000000089e-01 -8.895690000000000541e-01 9.125010000000000066e-01 -2.552464000000000066e+00 -1.820030999999999954e+00 3.749321000000000126e+00 8.162610000000000143e-01 -5.001219999999999555e-01 -1.182412999999999936e+00 3.137639999999999874e-01 -1.083838000000000079e+00 -2.242200000000000026e-01 -2.057453000000000198e+00 1.186190999999999995e+00 -1.111480000000000024e+00 2.123095000000000176e+00 -5.343940000000000357e-01 1.170963999999999894e+00 -6.488399999999999723e-02 8.349029999999999507e-01 -1.086988000000000065e+00 -1.640377999999999892e+00 1.215362999999999971e+00 -1.643774999999999986e+00 2.476138999999999868e+00 1.785339999999999983e-01 3.978598999999999997e+00 -1.429524000000000017e+00 -1.315900000000000125e-01 1.145251999999999937e+00 -1.540492999999999890e+00 -1.243387000000000020e+00 1.154762000000000066e+00 -3.458399999999999808e-01 -1.138730000000000020e+00 9.893779999999999797e-01 -1.501060000000000061e+00 -6.156620000000000426e-01 6.344170000000000087e-01 -6.415340000000000487e-01 2.523957999999999924e+00 -2.564910000000000245e-01 -2.087859999999999994e-01 1.899934000000000012e+00 5.628859999999999975e-01 1.563433999999999990e+00 -3.421213999999999977e+00 1.440380999999999911e+00 -1.286087999999999898e+00 4.238469999999999738e-01 -1.764880000000000060e-01 -1.008682000000000079e+00 2.619300000000000100e-02 1.666994000000000087e+00 2.174713999999999814e+00 1.234709999999999974e-01 -2.971730000000000205e-01 5.138600000000000112e-02 -5.976409999999999778e-01 -1.860184999999999977e+00 -1.081814999999999971e+00 -3.117059999999999831e-01 9.782440000000000024e-01 5.389180000000000081e-01 -3.222889999999999922e-01 -1.807419000000000109e+00 -3.373650000000000260e-01 3.344420000000000170e-01 -1.819000000000000061e-01 -6.840009999999999701e-01 1.373876000000000097e+00 -5.634719999999999729e-01 -2.420960000000000056e-01 -3.528810000000000002e-01 -2.169999999999999891e-04 -8.582159999999999789e-01 3.122719999999999940e-01 -2.702510000000000190e+00 6.878560000000000230e-01 3.832459999999999756e-01 7.288489999999999691e-01 3.994550000000000045e-01 -4.655949999999999811e-01 7.884189999999999809e-01 1.898811000000000027e+00 1.670619999999999883e-01 -1.908398999999999957e+00 1.426628000000000007e+00 4.241299999999999931e-02 5.323579999999999979e-01 -1.266896999999999940e+00 -1.228893000000000013e+00 3.135435999999999890e+00 2.844999999999999873e-03 -1.248254999999999892e+00 -3.844965000000000188e+00 1.005462000000000078e+00 -4.340100000000000069e-01 2.424389000000000127e+00 -9.102500000000000036e-01 1.535849999999999937e+00 1.921113000000000071e+00 -3.850569999999999826e-01 1.428874999999999895e+00 -2.984780000000000211e+00 -1.498199999999999976e+00 2.758100000000000218e+00 -2.710169000000000050e+00 -9.194020000000000525e-01 4.897830000000000239e-01 4.737310000000000132e-01 -3.113399999999999848e-02 -1.510442000000000062e+00 -7.174190000000000289e-01 -1.173208999999999946e+00 -1.171200000000000019e+00 7.245610000000000106e-01 -4.777660000000000240e-01 -3.228422000000000125e+00 -1.208835000000000104e+00 -1.149850999999999956e+00 -2.434327000000000130e+00 -3.670350000000000001e-01 2.657696000000000058e+00 1.035469999999999891e+00 -1.261454000000000075e+00 -1.169020000000000059e-01 -9.048460000000000392e-01 7.930260000000000087e-01 2.109901999999999944e+00 -2.688180000000000014e-01 1.990393000000000079e+00 8.390159999999999840e-01 1.780502999999999947e+00 -6.196009999999999573e-01 -1.721805000000000030e+00 1.221097000000000099e+00 -1.046699999999999992e-01 1.556594000000000033e+00 2.676460000000000061e+00 -1.082146999999999970e+00 6.373710000000000209e-01 -1.800670000000000048e-01 -1.499961000000000100e+00 1.065507999999999900e+00 9.469999999999999529e-01 9.788989999999999636e-01 2.902179999999999760e-01 -1.087188999999999961e+00 -1.992379999999999984e-01 6.617020000000000124e-01 -8.461819999999999897e-01 1.508783999999999903e+00