6.485345211000000276e+00 0.000000000000000000e+00 0.000000000000000000e+00 1.706089650000000013e+00 8.403987104000000485e+00 0.000000000000000000e+00 -1.250308750000000135e-01 -1.105697700000000082e-02 8.342867727999999872e+00
6.390541923999999874e+00 0.000000000000000000e+00 0.000000000000000000e+00 1.491528610999999893e+00 8.540237346999999701e+00 0.000000000000000000e+00 5.492749100000000190e-02 -1.341849390000000031e-01 8.731430974000000234e+00
6.467595967000000279e+00 0.000000000000000000e+00 0.000000000000000000e+00 1.602413195000000012e+00 8.726902245999999863e+00 0.000000000000000000e+00 -7.601163599999999354e-02 1.068314999999999959e-01 8.411968058999999442e+00
6.524091458000000010e+00 0.000000000000000000e+00 0.000000000000000000e+00 1.634972658999999995e+00 8.414000024999999994e+00 0.000000000000000000e+00 -1.734744900000000090e-02 -3.817452699999999977e-02 8.319214043000000558e+00
6.558478377000000137e+00 0.000000000000000000e+00 0.000000000000000000e+00 1.453643024000000006e+00 8.367812005999999414e+00 0.000000000000000000e+00 1.394085800000000042e-02 7.276773500000000006e-02 8.522988405999999628e+00
6.502578069000000127e+00 0.000000000000000000e+00 0.000000000000000000e+00 2.146261074999999963e+00 8.469359566999999700e+00 0.000000000000000000e+00 5.070020299999999924e-02 -5.775070999999999677e-03 8.640848338999999712e+00
6.464991730999999575e+00 0.000000000000000000e+00 0.000000000000000000e+00 1.807599501999999969e+00 8.606765449999999262e+00 0.000000000000000000e+00 2.618913200000000038e-02 3.650951259999999921e-01 8.613822262999999424e+00
6.588736051999999788e+00 0.000000000000000000e+00 0.000000000000000000e+00 1.526863403999999980e+00 8.575100220999999578e+00 0.000000000000000000e+00 2.960363499999999967e-02 -2.383931499999999981e-02 8.526948433999999466e+00
6.532228176000000275e+00 0.000000000000000000e+00 0.000000000000000000e+00 1.657430479999999928e+00 8.446965602000000573e+00 0.000000000000000000e+00 -2.396965499999999943e-02 -1.613588750000000127e-01 8.394916422999999739e+00
6.582600137000000018e+00 0.000000000000000000e+00 0.000000000000000000e+00 1.581923782999999917e+00 8.429075421000000290e+00 0.000000000000000000e+00 -1.819327199999999992e-02 -1.219172200000000032e-02 8.626148152000000735e+00
6.529780463999999895e+00 0.000000000000000000e+00 0.000000000000000000e+00 1.441318996999999991e+00 8.396645376000000383e+00 0.000000000000000000e+00 -2.939904000000000128e-03 -7.094755299999999654e-02 8.255013924000000003e+00
6.352462316000000442e+00 0.000000000000000000e+00 0.000000000000000000e+00 1.521296897999999898e+00 8.787215468999999501e+00 0.000000000000000000e+00 -1.718749619999999922e-01 1.548235940000000088e-01 8.555622589000000389e+00
6.475512736999999852e+00 0.000000000000000000e+00 0.000000000000000000e+00 1.623312872999999934e+00 8.355017812999999904e+00 0.000000000000000000e+00 3.618690000000000101e-02 -1.105524539999999944e-01 8.251586020999999604e+00
6.590007900999999890e+00 0.000000000000000000e+00 0.000000000000000000e+00 1.308957538999999892e+00 8.506133804999999271e+00 0.000000000000000000e+00 1.045169420000000016e-01 -3.494413999999999854e-02 8.502579222999999686e+00
6.508693702000000414e+00 0.000000000000000000e+00 0.000000000000000000e+00 1.335041437999999969e+00 8.436397109999999699e+00 0.000000000000000000e+00 -2.048764100000000088e-02 1.470564420000000094e-01 8.461049106000000819e+00
6.541427801000000208e+00 0.000000000000000000e+00 0.000000000000000000e+00 1.718593193000000019e+00 8.456882618999999934e+00 0.000000000000000000e+00 3.262741999999999899e-03 2.987910499999999955e-02 8.236702005999999798e+00
6.456158632000000175e+00 0.000000000000000000e+00 0.000000000000000000e+00 1.600326450000000067e+00 8.633074085000000508e+00 0.000000000000000000e+00 3.995864300000000202e-02 -7.568960199999999472e-02 8.476571108999999993e+00
6.286858024999999905e+00 0.000000000000000000e+00 0.000000000000000000e+00 1.637962257000000088e+00 8.156193006000000523e+00 0.000000000000000000e+00 -1.329546990000000095e-01 -1.592059000000000052e-03 9.540233249999999998e+00
6.552778394999999811e+00 0.000000000000000000e+00 0.000000000000000000e+00 1.976243514999999951e+00 8.603973012999999170e+00 0.000000000000000000e+00 9.151486000000000343e-02 -6.982466099999999620e-02 8.592413661000000147e+00
6.409289643000000147e+00 0.000000000000000000e+00 0.000000000000000000e+00 1.641539692999999911e+00 8.592220519999999695e+00 0.000000000000000000e+00 4.179502200000000112e-02 -5.739601099999999678e-02 8.600720663000000599e+00
6.403997104000000107e+00 0.000000000000000000e+00 0.000000000000000000e+00 1.359669916999999950e+00 8.486086829999999637e+00 0.000000000000000000e+00 2.547305899999999929e-02 9.996114100000000335e-02 8.369698480000000274e+00
6.500600185999999781e+00 0.000000000000000000e+00 0.000000000000000000e+00 1.475083176000000051e+00 8.505033815999999192e+00 0.000000000000000000e+00 6.481309999999999676e-03 -2.287826199999999990e-02 8.246051737000000159e+00
6.552759359999999589e+00 0.000000000000000000e+00 0.000000000000000000e+00 1.629322498000000063e+00 8.531558557000000320e+00 0.000000000000000000e+00 -4.040529899999999869e-02 -7.938462000000000296e-03 8.346710430999999986e+00
6.726185551000000373e+00 0.000000000000000000e+00 0.000000000000000000e+00 1.722324404999999947e+00 8.489045214000000783e+00 0.000000000000000000e+00 -9.545410000000000700e-03 8.762792299999999646e-02 8.376893174999999303e+00
6.658323679999999634e+00 0.000000000000000000e+00 0.000000000000000000e+00 1.719027709999999987e+00 8.372208305999999212e+00 0.000000000000000000e+00 4.488133500000000137e-02 -8.500117399999999879e-02 8.361806281999999868e+00
6.258395468999999878e+00 0.000000000000000000e+00 0.000000000000000000e+00 1.555348138999999907e+00 8.154555794000000191e+00 0.000000000000000000e+00 6.837012500000000381e-02 2.951292499999999888e-02 9.831301586000000370e+00
6.401420029999999706e+00 0.000000000000000000e+00 0.000000000000000000e+00 1.506211133000000091e+00 8.352461267000000689e+00 0.000000000000000000e+00 -3.892397000000000131e-03 2.506710700000000167e-02 8.762692780000000070e+00
6.616521945999999765e+00 0.000000000000000000e+00 0.000000000000000000e+00 1.284924033000000021e+00 8.802058116999999626e+00 0.000000000000000000e+00 1.130243300000000062e-02 2.385197189999999912e-01 8.494818343000000382e+00
6.469599467000000104e+00 0.000000000000000000e+00 0.000000000000000000e+00 1.216847513000000047e+00 8.445545010000000019e+00 0.000000000000000000e+00 -7.579600200000000121e-02 -1.933652699999999919e-02 8.452132277000000471e+00
6.488262329000000328e+00 0.000000000000000000e+00 0.000000000000000000e+00 2.122534288999999852e+00 8.592454988000000071e+00 0.000000000000000000e+00 2.485563829999999919e-01 -4.229531499999999999e-02 8.456696895000000325e+00
6.500035709999999689e+00 0.000000000000000000e+00 0.000000000000000000e+00 1.668698519999999963e+00 8.489385349000000858e+00 0.000000000000000000e+00 1.011860499999999927e-02 5.478541099999999914e-02 8.202010489999999265e+00
6.613319243000000291e+00 0.000000000000000000e+00 0.000000000000000000e+00 1.799949282999999900e+00 8.357616373999999126e+00 0.000000000000000000e+00 -4.044639500000000304e-02 -7.597207599999999950e-02 8.195613360999999486e+00
6.381201036000000215e+00 0.000000000000000000e+00 0.000000000000000000e+00 1.496082012000000017e+00 8.615973373999999296e+00 0.000000000000000000e+00 -7.272651800000000388e-02 5.922206099999999945e-02 9.253622229999999504e+00
6.632995342000000072e+00 0.000000000000000000e+00 0.000000000000000000e+00 1.913975925999999994e+00 8.653306933999999728e+00 0.000000000000000000e+00 -1.973982190000000136e-01 2.621735999999999858e-02 8.425839589000000629e+00
6.629968079000000181e+00 0.000000000000000000e+00 0.000000000000000000e+00 -4.925193478999999819e+00 8.448879331000000548e+00 0.000000000000000000e+00 -1.581631600000000040e-02 6.768278799999999373e-02 8.214582861000000236e+00
6.398655169999999615e+00 0.000000000000000000e+00 0.000000000000000000e+00 1.559449588999999969e+00 8.397581423000000100e+00 0.000000000000000000e+00 1.345254600000000134e-01 1.037058499999999987e-02 8.440836585999999642e+00
6.526208723999999961e+00 0.000000000000000000e+00 0.000000000000000000e+00 1.556751285000000040e+00 8.524115863000000459e+00 0.000000000000000000e+00 6.011035399999999779e-02 1.936028799999999980e-02 8.531975771000000819e+00
6.483658963999999969e+00 0.000000000000000000e+00 0.000000000000000000e+00 1.707943825999999943e+00 8.497540323000000839e+00 0.000000000000000000e+00 1.826770470000000091e-01 2.534479099999999846e-02 8.471429912999999701e+00
6.452307603000000391e+00 0.000000000000000000e+00 0.000000000000000000e+00 1.621037516999999983e+00 8.583713692999999978e+00 0.000000000000000000e+00 4.804178600000000299e-02 -1.201275559999999965e-01 8.724842165000000094e+00
6.561199820999999766e+00 0.000000000000000000e+00 0.000000000000000000e+00 1.434718713999999951e+00 8.430415878999999890e+00 0.000000000000000000e+00 -1.639453299999999933e-02 -1.239793790000000007e-01 8.269519480999999672e+00
6.527795445999999835e+00 0.000000000000000000e+00 0.000000000000000000e+00 1.639870930999999921e+00 8.359239254000000230e+00 0.000000000000000000e+00 4.970965399999999895e-02 -7.717963499999999644e-02 8.218296180999999478e+00
6.449060098000000352e+00 0.000000000000000000e+00 0.000000000000000000e+00 1.685508997999999981e+00 8.629387615000000622e+00 0.000000000000000000e+00 -2.484742399999999990e-02 -6.152593800000000224e-02 8.701563195000000306e+00
6.479336005000000398e+00 0.000000000000000000e+00 0.000000000000000000e+00 1.469377442000000089e+00 8.530231767000000076e+00 0.000000000000000000e+00 4.390307400000000027e-02 -8.768283799999999906e-02 8.674208006000000637e+00
6.432329855999999957e+00 0.000000000000000000e+00 0.000000000000000000e+00 1.687599660999999918e+00 8.424015177999999437e+00 0.000000000000000000e+00 -3.737615600000000066e-02 -1.461846960000000029e-01 8.078479270000000767e+00
6.500956075999999584e+00 0.000000000000000000e+00 0.000000000000000000e+00 1.612156077000000076e+00 8.418729144000000275e+00 0.000000000000000000e+00 1.450084199999999990e-02 -6.709237399999999629e-02 8.398676586000000555e+00
6.470280853000000221e+00 0.000000000000000000e+00 0.000000000000000000e+00 1.466035022000000021e+00 8.317457838999999353e+00 0.000000000000000000e+00 3.125396099999999677e-02 3.161447399999999658e-02 8.284436602999999621e+00
6.717325097999999883e+00 0.000000000000000000e+00 0.000000000000000000e+00 1.729330612000000045e+00 8.442663502000000264e+00 0.000000000000000000e+00 -4.553368700000000324e-02 9.608577199999999985e-02 8.512854931999999764e+00
6.573066541000000207e+00 0.000000000000000000e+00 0.000000000000000000e+00 1.603779601999999915e+00 8.520260803999999411e+00 0.000000000000000000e+00 8.440531499999999465e-02 -3.296488000000000196e-03 8.430971517999999776e+00
6.653832249999999782e+00 0.000000000000000000e+00 0.000000000000000000e+00 -4.948582101000000399e+00 8.456553381999999175e+00 0.000000000000000000e+00 -2.294609900000000105e-02 1.077723079999999972e-01 8.172784564000000529e+00
6.596615680000000204e+00 0.000000000000000000e+00 0.000000000000000000e+00 -4.955636334000000254e+00 8.425724047999999300e+00 0.000000000000000000e+00 -2.340976900000000041e-02 3.086430600000000107e-02 8.269980396999999428e+00
