-3.710895193900000208e+02
-3.656205422500000282e+02
-3.699403536899999949e+02
-3.720053475199999866e+02
-3.681151167799999939e+02
-3.660802122599999961e+02
-3.658459641700000020e+02
-3.665372447899999884e+02
-3.710746216100000083e+02
-3.670794787899999960e+02
-3.724107242700000029e+02
-3.667284033099999760e+02
-3.709740224299999909e+02
-3.675876852000000099e+02
-3.679261771000000181e+02
-3.716746452300000101e+02
-3.704018574500000227e+02
-3.713729099199999837e+02
-3.664432009899999798e+02
-3.694855926100000261e+02
-3.675671920199999931e+02
-3.717127864700000259e+02
-3.712886788299999807e+02
-3.679448146700000279e+02
-3.711815053400000011e+02
-3.699998773799999867e+02
-3.658668223099999750e+02
-3.658931031299999859e+02
-3.708785390599999801e+02
-3.665416818499999749e+02
-3.715286590200000205e+02
-3.685651343600000018e+02
-3.656000806900000271e+02
-3.663628875800000060e+02
-3.711037424599999781e+02
-3.719239306599999964e+02
-3.704761410099999921e+02
-3.698499773400000095e+02
-3.695152124200000117e+02
-3.706629432199999883e+02
-3.702654038499999842e+02
-3.657230566100000146e+02
-3.655954857699999820e+02
-3.711691932499999780e+02
-3.708447984200000178e+02
-3.707241475100000230e+02
-3.674821316499999853e+02
-3.712618517999999881e+02
-3.704586952899999801e+02
-3.724384990199999947e+02
