6.521736020999999717e+00 0.000000000000000000e+00 0.000000000000000000e+00 1.688129262999999991e+00 8.516386000000000678e+00 0.000000000000000000e+00 -2.605143899999999915e-02 8.737349999999999631e-03 8.261641433999999506e+00
6.475134021999999767e+00 0.000000000000000000e+00 0.000000000000000000e+00 1.572099826999999950e+00 8.326242268999999752e+00 0.000000000000000000e+00 5.311355499999999979e-02 -3.130699199999999877e-02 8.962139140999999753e+00
6.390466047000000316e+00 0.000000000000000000e+00 0.000000000000000000e+00 1.590610920999999900e+00 8.346151936000000049e+00 0.000000000000000000e+00 -4.162742900000000051e-02 5.712823699999999838e-02 8.606290802000000184e+00
6.662129525000000108e+00 0.000000000000000000e+00 0.000000000000000000e+00 -4.815597348999999916e+00 8.556182515999999794e+00 0.000000000000000000e+00 1.612316399999999886e-02 -4.680886299999999917e-02 8.068469823999999235e+00
6.571903921999999731e+00 0.000000000000000000e+00 0.000000000000000000e+00 1.568794559000000088e+00 8.471751861999999633e+00 0.000000000000000000e+00 3.524158000000000152e-02 -3.042580199999999832e-02 8.382568376000000043e+00
6.574596671000000114e+00 0.000000000000000000e+00 0.000000000000000000e+00 1.516288325999999964e+00 8.508688983000000761e+00 0.000000000000000000e+00 -6.203953999999999719e-02 2.193523500000000084e-02 8.355689949000000283e+00
6.494222151999999859e+00 0.000000000000000000e+00 0.000000000000000000e+00 1.596659307999999999e+00 8.401970064000000349e+00 0.000000000000000000e+00 -3.793864999999999998e-03 -1.405651400000000086e-02 8.203118761000000703e+00
6.533240702999999705e+00 0.000000000000000000e+00 0.000000000000000000e+00 1.729023690000000002e+00 8.493748050000000660e+00 0.000000000000000000e+00 -4.428891499999999815e-02 -1.296188900000000074e-02 8.546993640000000170e+00
6.475700889999999710e+00 0.000000000000000000e+00 0.000000000000000000e+00 1.695899779999999968e+00 8.449395391999999561e+00 0.000000000000000000e+00 -5.746691899999999825e-02 2.068718199999999841e-02 8.444992493999999184e+00
6.422046286999999687e+00 0.000000000000000000e+00 0.000000000000000000e+00 1.539604358999999922e+00 8.330539233999999738e+00 0.000000000000000000e+00 4.290942300000000209e-02 -1.194884300000000066e-02 8.289477608000000330e+00
6.531031211000000170e+00 0.000000000000000000e+00 0.000000000000000000e+00 1.503930768999999890e+00 8.572794108000000080e+00 0.000000000000000000e+00 -1.896869000000000029e-03 5.150452199999999703e-02 8.795041356000000476e+00
6.553573987000000045e+00 0.000000000000000000e+00 0.000000000000000000e+00 1.560632615000000056e+00 8.496021118999999899e+00 0.000000000000000000e+00 -2.616862199999999902e-02 4.001328400000000313e-02 8.334476693999999242e+00
6.421769409000000373e+00 0.000000000000000000e+00 0.000000000000000000e+00 1.594728294999999907e+00 8.292961055999999331e+00 0.000000000000000000e+00 5.539645399999999775e-02 -4.688258399999999798e-02 8.885785052999999323e+00
6.521686303000000073e+00 0.000000000000000000e+00 0.000000000000000000e+00 1.660871758999999948e+00 8.380717369999999278e+00 0.000000000000000000e+00 6.581791600000000408e-02 -1.104208250000000002e-01 8.493077347999999915e+00
6.554192562999999971e+00 0.000000000000000000e+00 0.000000000000000000e+00 1.517694485999999898e+00 8.490535316000000776e+00 0.000000000000000000e+00 6.143889699999999926e-02 5.787849999999999766e-03 8.410619236000000498e+00
6.541837690999999566e+00 0.000000000000000000e+00 0.000000000000000000e+00 1.512780314000000015e+00 8.562568644000000617e+00 0.000000000000000000e+00 5.204168999999999809e-03 -7.626751999999999664e-03 8.643551842999999124e+00
6.440285702999999806e+00 0.000000000000000000e+00 0.000000000000000000e+00 1.687590241000000102e+00 8.419811931999999999e+00 0.000000000000000000e+00 -8.239546000000000370e-03 3.161024500000000209e-02 8.393543606999999795e+00
6.382586157999999621e+00 0.000000000000000000e+00 0.000000000000000000e+00 1.495142331999999907e+00 8.303362905000000183e+00 0.000000000000000000e+00 4.401494300000000082e-02 -3.255886599999999881e-02 8.130912597000000019e+00
6.447976509000000078e+00 0.000000000000000000e+00 0.000000000000000000e+00 1.620734952999999923e+00 8.410939322999999135e+00 0.000000000000000000e+00 -4.853636199999999956e-02 6.384620800000000151e-02 8.479301703000000856e+00
6.431661858000000009e+00 0.000000000000000000e+00 0.000000000000000000e+00 1.580118514000000030e+00 8.455171489999999679e+00 0.000000000000000000e+00 -2.127508599999999861e-02 3.147791999999999951e-02 8.656638045999999420e+00
6.555809238000000150e+00 0.000000000000000000e+00 0.000000000000000000e+00 1.550502964999999955e+00 8.437457846999999234e+00 0.000000000000000000e+00 4.408080200000000226e-02 -7.084299700000000477e-02 8.319420728000000764e+00
6.534924563999999769e+00 0.000000000000000000e+00 0.000000000000000000e+00 1.660047569000000056e+00 8.557922544000000187e+00 0.000000000000000000e+00 -2.188180500000000070e-02 5.994392000000000297e-03 8.256384732000000781e+00
6.540962496999999765e+00 0.000000000000000000e+00 0.000000000000000000e+00 1.598987901999999961e+00 8.483856296000000796e+00 0.000000000000000000e+00 -6.929096000000000040e-03 -1.091979099999999987e-02 8.242538422999999170e+00
6.550112397999999558e+00 0.000000000000000000e+00 0.000000000000000000e+00 1.772438138999999913e+00 8.516130213000000282e+00 0.000000000000000000e+00 1.529351299999999990e-02 -5.804925100000000310e-02 8.285876111000000321e+00
6.434284438999999800e+00 0.000000000000000000e+00 0.000000000000000000e+00 1.489034041000000030e+00 8.295577209999999369e+00 0.000000000000000000e+00 -1.143243799999999963e-02 -2.153226299999999940e-02 8.192420345000000381e+00
6.502448677000000288e+00 0.000000000000000000e+00 0.000000000000000000e+00 1.562520982999999974e+00 8.514207368999999304e+00 0.000000000000000000e+00 -5.120544700000000116e-02 3.698604099999999728e-02 8.647350348999999881e+00
6.535916609000000044e+00 0.000000000000000000e+00 0.000000000000000000e+00 1.783143928999999961e+00 8.570910409999999757e+00 0.000000000000000000e+00 5.074099000000000317e-03 3.145329399999999970e-02 8.818101532000000020e+00
6.524492088999999773e+00 0.000000000000000000e+00 0.000000000000000000e+00 1.651371839999999924e+00 8.481277588999999395e+00 0.000000000000000000e+00 4.464069700000000002e-02 -7.420256599999999758e-02 8.621256669999999289e+00
6.402236931000000020e+00 0.000000000000000000e+00 0.000000000000000000e+00 1.683664829000000029e+00 8.314897400999999633e+00 0.000000000000000000e+00 5.958846000000000281e-03 7.952307999999999946e-03 8.285463510999999670e+00
6.403209555000000108e+00 0.000000000000000000e+00 0.000000000000000000e+00 1.557279649999999904e+00 8.298986424000000639e+00 0.000000000000000000e+00 1.604480600000000173e-02 -5.579070700000000188e-02 8.182209360999999959e+00
6.424548570999999875e+00 0.000000000000000000e+00 0.000000000000000000e+00 1.570433457000000033e+00 8.431862669999999227e+00 0.000000000000000000e+00 -3.417527000000000065e-03 3.759988999999999693e-02 8.635881507000000568e+00
6.419066593000000154e+00 0.000000000000000000e+00 0.000000000000000000e+00 1.658096221999999953e+00 8.347493535999999992e+00 0.000000000000000000e+00 -3.822543700000000100e-02 -3.114719000000000168e-03 8.333353271000000007e+00
6.444182907000000071e+00 0.000000000000000000e+00 0.000000000000000000e+00 1.509476653999999973e+00 8.435945118999999437e+00 0.000000000000000000e+00 -4.902340000000000170e-02 1.796421200000000024e-02 8.611579630999999679e+00
6.441076651000000375e+00 0.000000000000000000e+00 0.000000000000000000e+00 1.569348060999999905e+00 8.368472793000000465e+00 0.000000000000000000e+00 3.956900299999999843e-02 -8.992540699999999887e-02 8.406340807999999498e+00
6.404681553999999721e+00 0.000000000000000000e+00 0.000000000000000000e+00 1.631207183999999977e+00 8.312299296999999143e+00 0.000000000000000000e+00 5.251193600000000211e-02 -5.795586099999999741e-02 8.802619222000000576e+00
6.479323857999999881e+00 0.000000000000000000e+00 0.000000000000000000e+00 1.597752132999999963e+00 8.430131739000000124e+00 0.000000000000000000e+00 1.677137500000000156e-02 -2.323093500000000117e-02 8.339948257999999726e+00
6.562116718999999598e+00 0.000000000000000000e+00 0.000000000000000000e+00 1.786663659000000015e+00 8.580833621000000022e+00 0.000000000000000000e+00 -1.614636200000000091e-02 6.136914799999999837e-02 8.749350211999999516e+00
6.502471043999999978e+00 0.000000000000000000e+00 0.000000000000000000e+00 1.570580188000000099e+00 8.411669121999999277e+00 0.000000000000000000e+00 -2.189664700000000172e-02 1.572378400000000107e-02 8.302251604000000285e+00
6.366066741000000029e+00 0.000000000000000000e+00 0.000000000000000000e+00 1.638283225999999981e+00 8.254781335000000553e+00 0.000000000000000000e+00 -1.896371999999999901e-03 4.396962699999999724e-02 8.254967887999999476e+00
6.378422596000000055e+00 0.000000000000000000e+00 0.000000000000000000e+00 1.647898716999999902e+00 8.336037105999999142e+00 0.000000000000000000e+00 -4.347428999999999877e-03 8.301172099999999665e-02 8.495267628000000570e+00
6.488885782999999741e+00 0.000000000000000000e+00 0.000000000000000000e+00 1.518512367000000030e+00 8.393559572999999219e+00 0.000000000000000000e+00 5.114467699999999950e-02 -4.180309599999999792e-02 8.135266478000000134e+00
6.539912344000000211e+00 0.000000000000000000e+00 0.000000000000000000e+00 1.512376450999999955e+00 8.438808821000000293e+00 0.000000000000000000e+00 -2.471263099999999879e-02 1.239833899999999954e-02 8.251805643999999162e+00
6.464868715999999793e+00 0.000000000000000000e+00 0.000000000000000000e+00 1.557313262000000087e+00 8.377140336000000076e+00 0.000000000000000000e+00 -5.388733200000000306e-02 6.311616899999999974e-02 8.366286733000000808e+00
6.395560369000000023e+00 0.000000000000000000e+00 0.000000000000000000e+00 1.613231848999999940e+00 8.393302756000000642e+00 0.000000000000000000e+00 -2.203441899999999953e-02 3.651413600000000259e-02 8.575662821999999963e+00
6.422962719000000043e+00 0.000000000000000000e+00 0.000000000000000000e+00 1.746428818999999910e+00 8.345397493000000111e+00 0.000000000000000000e+00 1.629087599999999927e-02 -2.075296399999999875e-02 8.149940464000000162e+00
6.468396467999999899e+00 0.000000000000000000e+00 0.000000000000000000e+00 1.589257007999999916e+00 8.335671311000000472e+00 0.000000000000000000e+00 -3.055483999999999804e-03 -4.934285699999999691e-02 8.265266115999999386e+00
6.547719826999999881e+00 0.000000000000000000e+00 0.000000000000000000e+00 1.877589098999999928e+00 8.621731427000000281e+00 0.000000000000000000e+00 1.904638700000000143e-02 4.674178300000000202e-02 8.703345232000000209e+00
6.585381049999999625e+00 0.000000000000000000e+00 0.000000000000000000e+00 1.720345902999999899e+00 8.456241292999999715e+00 0.000000000000000000e+00 4.454166500000000112e-02 -1.003348849999999987e-01 8.412495752999999965e+00
6.417073150000000226e+00 0.000000000000000000e+00 0.000000000000000000e+00 1.650700580999999945e+00 8.366318520000000092e+00 0.000000000000000000e+00 2.543234700000000098e-02 -1.506912900000000055e-02 8.479354791000000446e+00
6.466583110000000190e+00 0.000000000000000000e+00 0.000000000000000000e+00 1.551067825000000067e+00 8.386370676000000302e+00 0.000000000000000000e+00 4.506073000000000196e-03 -4.849876499999999924e-02 8.387882976000000212e+00
