8.257200000000000650e-02 -8.664279999999999760e-01 8.343319999999999625e-01 5.179580000000000295e-01 1.048758000000000079e+00 7.857410000000000228e-01 9.763920000000000377e-01 8.274599999999999733e-01 -2.304080000000000017e-01 -1.927064000000000110e+00 5.749499999999999750e-02 1.095247000000000082e+00 -2.555609999999999826e-01 -3.729299999999999837e-01 -3.496719999999999828e-01 -1.200933999999999946e+00 -1.081890999999999936e+00 -1.111167000000000016e+00 3.641159999999999952e-01 7.658869999999999845e-01 -8.097830000000000306e-01 1.643034000000000106e+00 3.613106000000000151e+00 -3.702179999999999915e-01 -2.522500000000000089e-02 1.115423000000000053e+00 -1.128438000000000052e+00 -2.725270000000000192e-01 -1.279325000000000045e+00 -2.088119999999999976e-01 1.672843999999999998e+00 -1.398115999999999914e+00 -2.443563000000000152e+00 6.331299999999999706e-01 -4.777040000000000175e-01 -3.739999999999999835e-03 -3.529229999999999867e-01 -4.034320000000000128e-01 -1.696247999999999978e+00 -2.797910000000000119e-01 9.395599999999999785e-02 9.829170000000000407e-01 1.035166999999999948e+00 -1.007263999999999937e+00 1.618122000000000060e+00 -2.003117000000000036e+00 -1.413070000000000048e+00 6.423919999999999630e-01 -4.326969999999999983e-01 -2.904059999999999975e-01 1.135700000000000078e-02 2.070634000000000086e+00 5.903439999999999799e-01 9.834990000000000121e-01 -1.033079999999999971e-01 1.423958999999999975e+00 5.414309999999999956e-01 -2.278789999999999982e-01 7.713240000000000096e-01 4.634920000000000151e-01 -5.556090000000000195e-01 9.710069999999999535e-01 4.988650000000000029e-01 2.413222999999999896e+00 1.905999999999999917e-01 -8.390929999999999778e-01 1.338476999999999917e+00 -2.866830000000000211e+00 1.030424999999999924e+00 -2.401092999999999922e+00 9.548290000000000388e-01 -7.848380000000000356e-01 -3.398349999999999982e-01 5.656740000000000101e-01 2.246759999999999868e-01 -7.284589999999999677e-01 6.228850000000000220e-01 -7.008670000000000178e-01 1.296950000000000047e-01 -8.040000000000000480e-01 -5.047500000000000320e-01 1.458722000000000074e+00 -1.022550999999999988e+00 -6.071560000000000290e-01 7.381889999999999841e-01 1.940004999999999979e+00 7.169090000000000185e-01 8.667660000000000364e-01 3.304626999999999981e+00 -6.282109999999999639e-01 1.813909999999999911e+00 2.028893000000000058e+00 4.642700000000000160e-01 3.823170000000000179e-01 9.088699999999999557e-02 8.801430000000000087e-01 -2.232928999999999942e+00 -1.710096999999999978e+00 3.769569999999999865e-01 -8.993470000000000075e-01 -6.474389999999999867e-01 7.155200000000000449e-01 1.073312999999999962e+00 -8.727160000000000473e-01 -3.131090000000000262e-01 2.694070000000000076e-01 6.656499999999999917e-02 7.745039999999999702e-01 -2.223380000000000078e-01 -2.398579999999999934e+00 4.909100000000000269e-02 -6.158010000000000428e-01 -7.208120000000000083e-01 1.381489999999999940e-01 -6.055399999999999672e-02 3.272749999999999826e-01 -6.243400000000000061e-01 -2.819849999999999857e-01 1.493463999999999903e+00 -5.778349999999999875e-01 8.544599999999999418e-02 -8.625420000000000309e-01 1.223149999999999932e-01 -6.757870000000000266e-01 -2.826610000000000067e+00 4.010779999999999901e-01 -3.990799999999999903e-02 7.650839999999999863e-01 -1.424940000000000095e-01 -7.793639999999999457e-01 2.024070000000000036e-01 7.735400000000000609e-02 6.921000000000000069e-03 -6.645830000000000348e-01 4.525290000000000146e-01 -3.014114000000000182e+00 9.215729999999999755e-01 1.700700000000000128e-02 3.559149999999999814e-01 -7.661639999999999562e-01 -8.235799999999999788e-01
8.573119999999999630e-01 -1.090497000000000050e+00 1.702750999999999904e+00 -9.381570000000000187e-01 -2.070720000000000061e-01 -1.856480000000000075e-01 3.463800000000000212e-01 -3.244360000000000022e-01 1.740342999999999973e+00 4.894199999999999939e-02 -1.518623999999999974e+00 -1.693345000000000100e+00 -1.273633999999999933e+00 4.328719999999999790e-01 5.687320000000000153e-01 1.579371000000000080e+00 -3.276292999999999900e+00 -1.767392999999999992e+00 8.245000000000000592e-03 3.530499999999999750e-01 8.148959999999999537e-01 1.422450999999999910e+00 4.153220000000000245e-01 -2.568994000000000000e+00 -3.588529999999999776e-01 1.078332999999999986e+00 6.454870000000000330e-01 -2.525418000000000163e+00 4.800320000000000142e-01 -5.990899999999999698e-02 3.317988000000000159e+00 6.015369999999999884e-01 -5.183280000000000109e-01 -2.734639000000000042e+00 -1.979792999999999914e+00 -4.995510000000000228e-01 2.202949999999999908e-01 -4.168930000000000136e-01 1.240178999999999920e+00 -1.998180000000000067e+00 6.598600000000000021e-01 -1.752759999999999874e-01 9.382700000000000484e-01 -1.405931000000000042e+00 -1.163772000000000029e+00 5.150310000000000166e-01 1.850551999999999975e+00 -1.564379999999999937e-01 2.401534999999999975e+00 1.814588000000000090e+00 -1.381405999999999912e+00 1.363402000000000003e+00 6.380399999999999960e-02 -1.794102000000000086e+00 -3.346175000000000122e+00 -2.718573000000000128e+00 -5.610249999999999959e-01 -2.202766000000000002e+00 1.337034999999999973e+00 -5.107660000000000533e-01 9.775949999999999918e-01 -1.276783999999999919e+00 -1.695748000000000033e+00 -2.470485000000000042e+00 -4.658459999999999823e-01 5.879130000000000189e-01 5.354560000000000430e-01 6.074669999999999792e-01 1.082195999999999936e+00 -2.236517999999999784e+00 1.655553000000000052e+00 8.717169999999999641e-01 -8.540440000000000254e-01 4.079720000000000013e-01 -1.419627999999999890e+00 2.777134000000000214e+00 -5.604310000000000125e-01 1.079317000000000082e+00 -5.388490000000000224e-01 -3.867490000000000094e-01 -2.038199999999999790e+00 6.669389999999999485e-01 1.037863999999999898e+00 -5.717100000000000515e-01 -1.997862999999999944e+00 3.208365000000000133e+00 1.339688999999999908e+00 2.322741000000000167e+00 2.652399999999999758e-01 -2.631800000000000112e-02 3.243838000000000221e+00 -2.219150000000000011e-01 -1.769012999999999947e+00 -4.224530000000000229e-01 -2.904272999999999882e+00 4.463420000000000165e-01 -1.180695999999999968e+00 1.389937999999999896e+00 1.092578999999999967e+00 2.682608999999999799e+00 -1.943920000000000092e+00 -6.761080000000000423e-01 1.567199999999999982e-01 2.950883999999999840e+00 -4.818399999999999767e-02 8.196189999999999864e-01 1.811399999999999955e-01 1.583320000000000061e+00 4.229930000000000079e-01 -1.024888000000000021e+00 -5.439599999999999991e-02 6.071940000000000115e-01 -2.269660000000000011e-01 6.059160000000000101e-01 9.519260000000000499e-01 2.801559999999999828e+00 1.456083000000000016e+00 7.831989999999999785e-01 1.121031000000000111e+00 -1.687039999999999929e-01 -2.924209999999999865e-01 3.077983000000000136e+00 8.425810000000000244e-01 -1.640767000000000087e+00 -5.007909999999999862e-01 9.224200000000000177e-01 3.296279999999999766e-01 -2.772841000000000111e+00 1.206372000000000000e+00 6.916430000000000078e-01 -4.966948000000000363e+00 4.426089999999999747e-01 5.341000000000000192e-01 4.462679999999999980e-01 7.230879999999999530e-01 -3.654446999999999779e+00 1.591822000000000070e+00 1.176225000000000076e+00 -8.561910000000000354e-01 3.603910000000000169e-01 -6.667939999999999978e-01
-3.896726000000000134e+00 -3.352078999999999809e+00 -1.143887000000000098e+00 1.147404000000000091e+00 -1.704526999999999903e+00 2.272949999999999970e-01 1.860699000000000103e+00 9.339429999999999676e-01 1.730256999999999934e+00 2.619429999999999814e-01 1.450328999999999979e+00 -6.622270000000000101e-01 5.400730000000000253e-01 -4.602550000000000252e-01 -1.338357999999999937e+00 -1.997821999999999987e+00 -9.046739999999999782e-01 6.537579999999999503e-01 1.859442999999999957e+00 3.036220000000000030e-01 2.651009999999999756e-01 -9.316020000000000412e-01 -8.766979999999999773e-01 1.142439999999999900e+00 -2.249023000000000216e+00 1.842047999999999908e+00 1.642719999999999958e+00 -1.033166999999999947e+00 1.176244000000000067e+00 -9.610640000000000294e-01 4.472000000000000280e-03 2.821775000000000144e+00 3.352029999999999732e-01 4.044329999999999870e-01 1.064719999999999972e-01 1.644419000000000075e+00 4.395009999999999750e-01 -1.162265000000000104e+00 1.089799999999999935e-01 1.274834999999999940e+00 5.946829999999999616e-01 -4.009119999999999906e-01 3.863269999999999760e-01 1.378019000000000105e+00 9.574399999999999578e-01 1.137137999999999982e+00 1.292686000000000002e+00 5.127969999999999473e-01 1.427033999999999914e+00 6.758920000000000483e-01 -2.041379999999999861e-01 2.779653000000000151e+00 4.872699999999999948e-02 -1.396099999999999945e-02 2.938259999999999761e-01 5.035370000000000124e-01 -5.394210000000000393e-01 1.388498999999999928e+00 6.816710000000000269e-01 8.587100000000000288e-02 -5.685219999999999718e-01 -1.171419999999999961e-01 -2.462524999999999853e+00 1.893173999999999912e+00 -1.680230000000000057e-01 3.583290000000000086e-01 -1.525312000000000001e+00 -4.049099999999999921e-02 3.042489999999999917e-01 -1.231999000000000066e+00 1.594457000000000013e+00 -5.760400000000000242e-02 -2.190192000000000139e+00 -1.784729000000000010e+00 -3.366020000000000123e-01 -1.291733000000000020e+00 -1.451659999999999950e+00 7.662800000000000167e-02 -7.939950000000000063e-01 1.548299999999999954e-01 -1.498588999999999949e+00 -2.388346999999999998e+00 2.170288000000000217e+00 -1.323610000000000064e-01 -6.579490000000000061e-01 3.790569999999999773e-01 7.595690000000000497e-01 1.911039999999999961e-01 -1.683311999999999919e+00 5.724080000000000279e-01 6.580289999999999750e-01 2.792769999999999975e-01 2.165759999999999907e-01 -7.794020000000000392e-01 -8.695479999999999876e-01 -1.126399999999999971e-02 2.446267999999999887e+00 -4.869300000000000017e-02 -1.203613000000000044e+00 -1.078735999999999917e+00 7.313990000000000213e-01 -1.490121000000000029e+00 7.320360000000000200e-01 1.608310000000000017e-01 5.370340000000000114e-01 -1.182665999999999995e+00 1.087800000000000017e-01 -7.497719999999999940e-01 -1.358190999999999926e+00 -2.171870999999999885e+00 -1.431910000000000127e-01 -2.190322000000000102e+00 1.766378999999999921e+00 -2.839969999999999994e-01 7.663659999999999917e-01 -8.962449999999999584e-01 5.934299999999999992e-02 -1.782709000000000099e+00 7.003439999999999666e-01 2.140799999999999925e-01 1.220450000000000007e-01 -4.076290000000000191e-01 -5.601739999999999498e-01 4.787406999999999968e+00 1.555077999999999960e+00 7.324200000000000155e-02 8.210420000000000496e-01 -1.897752000000000105e+00 -4.387860000000000094e-01 1.972559999999999869e-01 -2.771717000000000208e+00 1.586314000000000002e+00 7.272699999999999998e-02 -1.452048000000000005e+00 -2.372489999999999877e-01 7.955299999999999871e-02 -5.003609999999999447e-01 7.784069999999999601e-01 1.156128999999999962e+00 1.311347000000000040e+00 2.735299999999999884e-02
-6.777600000000000291e-01 4.087390000000000190e-01 -1.047128999999999976e+00 5.497900000000000009e-02 -1.313026000000000026e+00 1.111000999999999905e+00 -8.757489999999999997e-01 1.281420000000000059e-01 -1.564929999999999932e-01 -6.503729999999999789e-01 -1.668540000000000023e-01 -8.768930000000000335e-01 -1.778173999999999921e+00 -1.494715999999999934e+00 2.746870000000000145e-01 -1.160523999999999889e+00 -9.522580000000000489e-01 -1.394916000000000045e+00 8.286599999999999522e-02 -2.821379999999999999e-01 6.553609999999999713e-01 5.101269999999999971e-01 -2.457499999999999962e-02 -4.660989999999999855e-01 8.484089999999999687e-01 4.836730000000000196e-01 -7.677110000000000323e-01 9.645730000000000137e-01 -2.861029999999999962e-01 -7.688620000000000454e-01 -1.306931999999999983e+00 -1.468514000000000097e+00 8.811099999999999488e-01 -5.549859999999999793e-01 -2.009370000000000045e-01 -7.223549999999999693e-01 1.246027999999999913e+00 3.947169999999999845e-01 -4.263989999999999725e-01 7.353800000000000336e-01 1.583210000000000006e+00 -4.163359999999999839e-01 1.314070000000000071e+00 -1.027436999999999934e+00 4.101609999999999978e-01 -6.578399999999999526e-02 1.046745999999999954e+00 -7.135040000000000271e-01 4.123640000000000083e-01 -2.371469999999999967e-01 9.691419999999999479e-01 4.018689999999999762e-01 -6.919999999999999762e-02 -1.356022000000000061e+00 1.028299000000000074e+00 1.454312000000000049e+00 -1.020672000000000024e+00 2.181919999999999971e-01 1.963549999999999907e+00 2.040319999999999911e-01 8.235810000000000075e-01 1.026763000000000092e+00 4.343899999999999845e-02 -1.050402999999999976e+00 -1.234356000000000009e+00 -4.311050000000000160e-01 5.860499999999999599e-01 6.730829999999999869e-01 -8.773549999999999960e-01 -5.620690000000000408e-01 -7.793719999999999537e-01 1.626340000000000008e-01 -1.109758000000000022e+00 5.357180000000000275e-01 4.343549999999999911e-01 -1.621158000000000099e+00 -1.704914999999999958e+00 2.360510999999999804e+00 -1.578934000000000060e+00 9.280140000000000056e-01 5.040630000000000388e-01 -6.186300000000000132e-02 -6.394859999999999989e-01 1.782939999999999969e+00 -1.011009000000000047e+00 3.973590000000000177e-01 4.954629999999999868e-01 4.365229999999999944e-01 1.067900999999999989e+00 3.039780000000000260e-01 -1.078170000000000073e+00 9.898800000000000654e-02 -8.815730000000000510e-01 -2.428009999999999891e-01 -1.050294999999999979e+00 1.172587999999999964e+00 -1.510113000000000039e+00 -9.854110000000000369e-01 -2.154429999999999956e-01 -2.021748999999999796e+00 -1.516451999999999911e+00 -4.025560000000000249e-01 6.778870000000000173e-01 1.553682000000000007e+00 1.827431999999999945e+00 7.133779999999999566e-01 -2.308709999999999929e-01 9.993649999999999478e-01 -6.989410000000000345e-01 -9.540480000000000071e-01 -3.463930000000000065e-01 -1.735778999999999961e+00 -1.851596999999999937e+00 -1.043782999999999905e+00 2.881079999999999752e-01 8.153660000000000352e-01 2.124451999999999785e+00 5.249989999999999934e-01 7.408329999999999638e-01 -3.126799999999999718e-02 1.291805000000000092e+00 -7.434599999999999542e-02 9.143759999999999666e-01 1.948782000000000014e+00 -7.552440000000000264e-01 2.322319999999999940e-01 4.361909999999999954e-01 1.136449999999999960e+00 -3.615470000000000073e-01 1.894643999999999995e+00 -4.009000000000000410e-03 -5.989489999999999537e-01 1.938010999999999928e+00 1.287565999999999988e+00 -1.387545999999999946e+00 1.080052999999999930e+00 1.248232999999999926e+00 4.229000000000000120e-02 8.958610000000000184e-01 3.302620000000000000e-01 -1.194703999999999988e+00
-1.566637000000000057e+00 5.112649999999999695e-01 1.257325999999999944e+00 -3.505853999999999804e+00 4.500339999999999896e-01 7.297519999999999563e-01 -2.948060000000000125e-01 1.000105000000000022e+00 5.144210000000000171e-01 1.903378000000000014e+00 7.077899999999999470e-02 -3.876490000000000213e-01 1.554216999999999960e+00 -1.210514000000000090e+00 -3.084160000000000235e-01 -2.874689999999999745e-01 -1.131202000000000041e+00 -8.066529999999999534e-01 1.159160000000000051e-01 1.607531999999999961e+00 -1.266519999999999868e-01 -4.154430000000000067e-01 1.441780000000000062e+00 -4.693459999999999854e-01 -3.122650000000000148e-01 -1.295109999999999872e-01 2.379405000000000214e+00 -2.287774999999999892e+00 -1.310327000000000019e+00 -3.703759999999999830e-01 2.364450999999999858e+00 -1.691583999999999977e+00 9.974680000000000213e-01 -1.838540000000000063e+00 5.907010000000000316e-01 -5.704799999999999871e-01 -2.269999999999999882e-03 2.290260000000000074e-01 -9.871640000000000414e-01 -8.869249999999999634e-01 2.231463999999999892e+00 7.627530000000000143e-01 -1.081428000000000056e+00 1.796332999999999958e+00 9.620929999999999760e-01 -3.135676000000000130e+00 8.851679999999999549e-01 5.983840000000000270e-01 2.410934999999999828e+00 8.436420000000000030e-01 -6.162100000000000355e-01 -1.931613000000000024e+00 -1.653262000000000009e+00 -9.277929999999999788e-01 3.380639999999999756e-01 -1.838650000000000007e-01 -1.391356000000000037e+00 -1.374301999999999913e+00 6.609319999999999640e-01 -1.432410000000000072e-01 1.827398999999999996e+00 1.326969000000000065e+00 -1.868260000000000032e+00 5.892370000000000108e-01 1.054490000000000011e-01 -5.169700000000000406e-01 -2.149850000000000094e-01 -1.878049999999999997e-01 2.070237999999999801e+00 3.747099999999999875e-01 -3.237115000000000187e+00 8.724899999999999878e-01 4.796940000000000093e-01 8.075489999999999613e-01 8.474599999999999911e-01 2.570914999999999839e+00 -2.125819999999999932e-01 -2.812709999999999932e-01 6.887109999999999621e-01 -1.616650000000000031e-01 9.982809999999999739e-01 1.689699999999999980e+00 -2.400402000000000147e+00 -2.212565000000000115e+00 4.803839999999999777e-01 -7.527399999999999647e-01 1.063396999999999926e+00 1.384907000000000110e+00 7.450360000000000316e-01 -1.079523000000000010e+00 -1.299649999999999972e-01 1.572311999999999932e+00 1.584575000000000067e+00 3.890069999999999917e-01 5.239359999999999573e-01 5.405510000000000037e-01 -8.357459999999999889e-01 -1.084791999999999978e+00 -1.842043000000000097e+00 1.167589999999999906e+00 1.896649999999999947e+00 1.106198999999999932e+00 -2.882789999999999964e+00 -2.422012000000000054e+00 -5.935650000000000093e-01 -1.117059000000000024e+00 -1.011940000000000062e+00 5.728649999999999576e-01 -3.792470000000000008e-01 -3.351901999999999937e+00 -5.874279999999999502e-01 -5.130230000000000068e-01 -2.767681000000000058e+00 -6.571639999999999704e-01 -1.227198000000000011e+00 1.640103000000000089e+00 6.083880000000000399e-01 -1.156957999999999931e+00 5.721260000000000234e-01 -2.000830000000000108e-01 3.136510000000000131e-01 -2.820070000000000077e-01 -1.365849000000000091e+00 2.896970000000000045e+00 1.078186000000000089e+00 -4.028579999999999939e-01 1.536353999999999997e+00 2.166869000000000156e+00 3.145149999999999890e-01 -4.259180000000000188e-01 1.389070000000000027e-01 6.040710000000000246e-01 2.183797999999999906e+00 8.142549999999999510e-01 1.140303999999999984e+00 -1.545628999999999920e+00 -8.441380000000000550e-01 1.981099999999999875e-02 2.089535000000000142e+00 3.199409999999999754e-01 -1.831830000000000069e+00
1.940905000000000102e+00 7.561539999999999928e-01 8.271880000000000344e-01 8.345040000000000235e-01 2.466609999999999914e-01 1.391040000000000054e+00 9.679000000000000103e-03 2.426601999999999926e+00 5.196929999999999605e-01 3.025628000000000206e+00 4.365999999999999742e-02 -8.768160000000000398e-01 3.503300000000000164e-02 2.967969999999999775e-01 -5.639600000000000168e-02 1.106119999999999992e+00 -1.629699000000000009e+00 -1.502493000000000078e+00 -4.331550000000000122e-01 -7.641170000000000462e-01 -9.345609999999999751e-01 -1.451160000000000005e+00 -1.050651000000000002e+00 -2.266798999999999786e+00 -3.715289999999999981e-01 -3.121769999999999823e-01 6.520850000000000257e-01 -8.850599999999999579e-01 3.812389999999999946e-01 -5.538260000000000405e-01 8.066710000000000269e-01 -2.372415999999999858e+00 -3.927200000000000135e-02 -4.231713000000000058e+00 -1.958016999999999896e+00 -5.992990000000000261e-01 2.607990000000000030e-01 -6.379500000000000171e-01 -2.398609999999999909e-01 -6.782449999999999868e-01 -2.570481000000000016e+00 1.453486000000000056e+00 3.342550000000000243e-01 1.362970999999999933e+00 2.888764999999999805e+00 1.617461999999999955e+00 6.234709999999999974e-01 -7.072119999999999518e-01 4.919300000000000062e-02 1.528655000000000097e+00 5.415269999999999806e-01 7.523549999999999960e-01 7.960000000000000409e-02 -8.558210000000000539e-01 -8.942449999999999566e-01 -3.158309999999999729e-01 -8.573039999999999550e-01 2.452911999999999981e+00 -5.613320000000000531e-01 -3.424889999999999879e-01 2.234391000000000016e+00 -6.700699999999999712e-02 5.011229999999999851e-01 1.953550000000000009e-01 7.167179999999999662e-01 1.032860000000000028e-01 5.140200000000000324e-01 5.593590000000000506e-01 9.127990000000000270e-01 1.391539999999999999e+00 -1.241714999999999902e+00 1.514370999999999912e+00 -3.674089999999999856e-01 -3.605119999999999991e-01 -6.140539999999999887e-01 -4.109369999999999967e-01 -6.798849999999999616e-01 1.321471999999999980e+00 -2.730356000000000005e+00 -2.201512999999999831e+00 -1.739141000000000048e+00 -1.348200000000000065e+00 1.591237999999999930e+00 -2.020313999999999943e+00 1.624003000000000085e+00 1.474199999999999990e-02 -1.577660000000000062e+00 -1.370622999999999925e+00 2.347770000000000135e-01 -5.427779999999999827e-01 -2.590250000000000052e-01 5.800480000000000080e-01 -3.026090000000000169e-01 1.014246999999999899e+00 2.209460000000000035e-01 -7.337550000000000461e-01 -7.409360000000000390e-01 5.517600000000000282e-02 -8.622049999999999992e-01 -1.952021999999999924e+00 -1.523414999999999964e+00 -6.848720000000000363e-01 -2.894435000000000091e+00 7.595450000000000257e-01 -1.081990000000000035e-01 1.379685000000000050e+00 1.157936000000000076e+00 -1.139590000000000047e-01 -1.337312999999999974e+00 -9.940849999999999964e-01 -6.766410000000000480e-01 -3.588270000000000071e-01 -1.827328000000000063e+00 5.067819999999999547e-01 -2.869860000000000189e-01 2.304167000000000076e+00 1.782294000000000045e+00 1.966984999999999983e+00 4.599980000000000180e-01 2.904800000000000090e-02 8.284949999999999815e-01 2.916418999999999873e+00 -9.578539999999999832e-01 1.629634000000000027e+00 2.552490000000000037e-01 1.849947000000000008e+00 -1.844373999999999958e+00 -8.640189999999999815e-01 8.359459999999999669e-01 -4.905720000000000081e-01 8.387200000000000211e-02 5.369299999999999767e-02 2.129542999999999964e+00 -4.302219999999999933e-01 2.304375999999999980e+00 -3.481789000000000023e+00 1.133669999999999956e+00 -4.254910000000000081e-01 6.854959999999999942e-01 1.572699000000000069e+00 1.202760999999999969e+00
2.472999999999999938e-03 -4.275140000000000051e-01 1.584022000000000041e+00 1.944790000000000130e-01 2.471279999999999866e-01 9.586970000000000214e-01 1.162549000000000055e+00 1.258226999999999984e+00 1.367790999999999979e+00 -3.659009999999999763e-01 3.768889999999999740e-01 4.655639999999999779e-01 1.844791000000000070e+00 -4.584019999999999762e-01 -9.533380000000000187e-01 -1.046000999999999959e+00 -6.884719999999999729e-01 2.856020000000000225e-01 -9.258199999999999763e-02 3.359280000000000044e-01 1.044520000000000032e-01 -2.379138000000000197e+00 -2.332073999999999980e+00 -5.360299999999999787e-02 -2.432590000000000030e-01 8.909699999999999565e-02 3.419820000000000082e-01 3.059572999999999876e+00 -1.447470999999999952e+00 -5.242689999999999850e-01 1.253108000000000111e+00 -1.842119000000000062e+00 4.753539999999999988e-01 -1.046243999999999952e+00 3.157730000000000259e-01 4.687109999999999888e-01 1.799523999999999901e+00 1.986097000000000001e+00 -7.270339999999999581e-01 5.787919999999999732e-01 -9.376999999999999919e-03 -8.455019999999999758e-01 2.112194000000000127e+00 -6.273499999999999910e-02 8.919500000000000206e-01 -4.971900000000000208e-01 -1.334711999999999898e+00 -1.194380999999999915e+00 -4.635489999999999888e-01 -6.465199999999999836e-01 9.184489999999999599e-01 -5.114689999999999515e-01 3.852329999999999921e-01 -2.336080000000000101e-01 2.052100000000000105e-02 4.626540000000000097e-01 -4.038590000000000235e-01 -3.890239999999999809e-01 -4.198189999999999977e-01 1.570370000000000099e-01 -3.357700000000000129e-01 -1.709740000000000038e+00 -4.849859999999999727e-01 -4.144360000000000266e-01 1.509260000000000046e-01 -3.092980000000000174e-01 -2.371592000000000144e+00 1.594918999999999976e+00 1.003025000000000055e+00 -4.254120000000000124e-01 4.468570000000000042e-01 -1.518660000000000010e-01 -1.637356000000000034e+00 1.616044000000000036e+00 2.860750000000000237e-01 2.944069999999999743e-01 9.682060000000000111e-01 -6.512679999999999580e-01 -8.083930000000000282e-01 3.958260000000000112e-01 -1.761519999999999975e+00 -1.812259999999999982e-01 -1.413289000000000017e+00 -3.937120000000000064e-01 7.531099999999999461e-01 -1.945040000000000102e-01 7.021169999999999911e-01 -1.793879999999999919e-01 8.181869999999999976e-01 -3.664040000000000075e-01 -1.057636000000000021e+00 8.086910000000000487e-01 5.465400000000000119e-02 4.024949999999999917e-01 -1.360399999999999943e-01 -3.425409999999999844e-01 -1.775967999999999991e+00 -9.112909999999999622e-01 -6.774399999999999866e-02 -3.701000000000000123e-02 -2.120900000000000007e-01 3.813599999999999768e-01 1.645102000000000064e+00 -6.913089999999999513e-01 -4.478000000000000209e-03 1.380147999999999930e+00 -9.589649999999999563e-01 -6.625569999999999515e-01 9.313810000000000144e-01 -3.711600000000000316e-02 4.052959999999999896e-01 3.651349999999999874e-01 1.846437000000000106e+00 1.040291000000000077e+00 2.854369999999999963e-01 2.005389999999999950e-01 1.307669999999999944e-01 8.876330000000000053e-01 5.260989999999999833e-01 5.209070000000000089e-01 3.575630000000000197e-01 -4.432269999999999821e-01 -7.199550000000000116e-01 1.038000000000000077e-03 -2.826699999999999768e-01 -5.654839999999999867e-01 3.682520000000000238e-01 8.939099999999999824e-01 4.256639999999999868e-01 5.620159999999999600e-01 5.995399999999999618e-01 -9.418050000000000033e-01 -1.454963000000000006e+00 -8.287899999999999434e-02 -3.925810000000000133e-01 -3.303525000000000045e+00 2.108019999999999894e-01 3.704529999999999768e-01 7.553100000000000369e-01 2.083220000000000072e-01 -5.884270000000000334e-01
-1.990931000000000006e+00 -6.275450000000000195e-01 -3.271680000000000144e-01 -1.422690000000000066e-01 2.548945999999999934e+00 -7.167799999999999727e-01 7.015789999999999527e-01 4.900880000000000236e-01 3.166379999999999750e-01 5.797290000000000498e-01 -1.564532999999999952e+00 -5.543609999999999927e-01 2.765677000000000163e+00 -1.220458999999999961e+00 4.844789999999999930e-01 1.597300000000000109e-02 -1.125434999999999963e+00 3.028699999999999726e-01 -6.020600000000000396e-01 6.473670000000000258e-01 -8.749649999999999928e-01 1.680190000000000017e-01 1.509242999999999890e+00 -5.225199999999999845e-01 1.434279999999999999e-01 -4.127580000000000138e-01 -1.700500000000000067e-01 9.071190000000000087e-01 5.604679999999999662e-01 -1.367309999999999914e-01 -2.914124000000000159e+00 -2.143336000000000130e+00 3.721860000000000168e-01 5.749260000000000481e-01 1.529411000000000076e+00 1.529416000000000109e+00 -1.194595999999999991e+00 5.032999999999999974e-02 -4.424299999999999899e-01 -1.045640000000000042e-01 6.541449999999999765e-01 7.345530000000000115e-01 -8.009500000000000508e-01 6.364379999999999482e-01 6.663670000000000426e-01 -1.512513999999999914e+00 3.048179999999999779e-01 -6.039900000000000130e-02 -3.386009999999999853e-01 -1.513019999999999921e-01 -9.207229999999999581e-01 -1.192129999999999995e-01 -4.252810000000000201e-01 8.284120000000000372e-01 -2.091759000000000146e+00 1.250594999999999901e+00 3.655539999999999901e-01 -8.258929999999999882e-01 7.063749999999999751e-01 2.452129999999999865e-01 4.571919999999999873e-01 1.517166999999999932e+00 -1.761399999999999910e-01 8.093390000000000306e-01 9.902119999999999811e-01 -4.621179999999999732e-01 2.059324999999999850e+00 -7.237160000000000259e-01 -2.447479999999999933e-01 1.492320000000000035e-01 -1.708129999999999926e+00 -1.026524999999999910e+00 3.251589999999999758e-01 4.832339999999999969e-01 4.560119999999999729e-01 7.411100000000000465e-01 6.422219999999999596e-01 -2.492040000000000088e-01 6.270130000000000425e-01 -7.820850000000000302e-01 1.540569999999999995e-01 6.370059999999999611e-01 -8.343669999999999698e-01 -8.254569999999999963e-01 -8.432809999999999473e-01 -7.517399999999999638e-01 -5.654099999999999682e-01 7.610879999999999868e-01 -1.997790000000000121e-01 1.111828000000000038e+00 1.585507000000000000e+00 -1.339158000000000071e+00 6.269430000000000280e-01 5.700089999999999879e-01 5.708309999999999773e-01 7.263209999999999944e-01 -9.994799999999999518e-02 2.589310000000000223e-01 -4.981700000000000017e-02 1.511859999999999871e-01 -6.789579999999999504e-01 2.131599999999999884e-01 -1.144692000000000043e+00 -1.305763999999999925e+00 9.534099999999999520e-02 -3.023440000000000016e-01 7.705199999999999827e-01 1.714414000000000105e+00 1.217808000000000002e+00 2.369620000000000060e-01 -5.909450000000000536e-01 1.403109999999999913e-01 -4.890209999999999835e-01 -2.349930000000000074e-01 -8.108309999999999684e-01 1.623987000000000069e+00 2.782000000000000028e-01 8.293970000000000509e-01 3.863815000000000222e+00 -5.151719999999999633e-01 6.866300000000000181e-02 -3.530794000000000210e+00 -6.942660000000000498e-01 1.734296000000000060e+00 -4.952159999999999895e-01 -2.462000000000000213e-03 -1.296219999999999872e-01 -3.823409999999999864e-01 -4.060309999999999753e-01 -3.731820000000000137e-01 -1.530850000000000044e+00 -2.681939999999999880e-01 -1.207538999999999918e+00 -1.151923999999999948e+00 4.853419999999999956e-01 -6.348179999999999934e-01 1.276780999999999944e+00 -3.917070000000000274e-01 -5.363580000000000014e-01 4.516060000000000074e-01 -2.779909999999999881e-01