6.150005151000000225e+00 0.000000000000000000e+00 0.000000000000000000e+00 -1.728524103999999895e+00 7.963725494000000182e+00 0.000000000000000000e+00 -1.495655098999999932e+00 2.792437834999999868e+00 7.536744157000000222e+00
6.229049307999999563e+00 0.000000000000000000e+00 0.000000000000000000e+00 -1.285821097999999996e+00 8.075291079999999511e+00 0.000000000000000000e+00 -1.454736680999999976e+00 2.747065831000000014e+00 7.524221874000000199e+00
6.117503746999999770e+00 0.000000000000000000e+00 0.000000000000000000e+00 -1.930295346000000078e+00 8.152341589000000610e+00 0.000000000000000000e+00 -1.506239435999999987e+00 2.946357803000000164e+00 7.708963155000000178e+00
6.063327716999999950e+00 0.000000000000000000e+00 0.000000000000000000e+00 -1.573784202999999993e+00 7.920605415999999899e+00 0.000000000000000000e+00 -1.525280183000000012e+00 2.744093069999999912e+00 7.441257962999999975e+00
6.177658408000000101e+00 0.000000000000000000e+00 0.000000000000000000e+00 -1.586467057999999986e+00 7.952448589000000290e+00 0.000000000000000000e+00 -1.693460560999999975e+00 2.505292151999999994e+00 7.562113841999999586e+00
6.055166541000000180e+00 0.000000000000000000e+00 0.000000000000000000e+00 -1.369045046999999959e+00 7.874317576000000152e+00 0.000000000000000000e+00 -1.625268300000000110e+00 2.541222943999999817e+00 7.521932131999999882e+00
