-2.882642593799999986e+02
-2.887644269400000212e+02
-2.865922996799999964e+02
-2.880686355400000025e+02
-2.898415180599999985e+02
-2.884566484599999967e+02
