-9.509269999999999667e-01 7.170229999999999659e-01 1.349909999999999999e-01 1.939999999999999993e-04 -2.432880000000000043e-01 5.457889999999999686e-01 1.911770000000000136e-01 1.308040000000000036e-01 6.747269999999999657e-01 -2.934689999999999799e-01 4.233029999999999848e-01 -7.610100000000000198e-02 -5.773880000000000123e-01 -2.047308000000000128e+00 2.175612999999999797e+00 1.337957999999999981e+00 -2.746490000000000098e+00 2.399842000000000031e+00 -1.929418999999999995e+00 7.984600000000000031e-02 3.314130000000000131e-01 -4.904370000000000118e-01 -1.196350000000000025e+00 -1.232224999999999904e+00 1.593962000000000101e+00 -9.709370000000000500e-01 -1.095417000000000085e+00 6.183084000000000024e+00 6.767459999999999587e-01 4.023571999999999704e+00 -4.108040000000000025e-01 -1.267438999999999982e+00 1.901690000000000047e-01 -1.602699999999999958e-01 1.038958999999999966e+00 2.287799999999999903e-02 3.137954000000000132e+00 3.088258999999999865e+00 -5.030059999999999532e-01 -9.274040000000000061e-01 -1.179170000000000051e+00 -3.811888999999999861e+00 -3.144759999999999778e-01 -5.650789999999999980e-01 -1.179710999999999954e+00 -8.415519999999999667e-01 -2.691740000000000244e-01 1.960347000000000062e+00 1.079646000000000106e+00 -4.574159999999999893e-01 -1.563919000000000059e+00 -5.568199999999999816e-01 -3.984900000000000247e-02 -1.892969999999999930e-01 -2.239210000000000089e-01 -2.562199000000000115e+00 2.402140000000000108e-01 1.056000999999999967e+00 2.178090000000000082e+00 1.208250999999999964e+00 -2.202780000000000016e-01 -1.445022999999999946e+00 -2.250957000000000097e+00 1.117715000000000014e+00 -1.367707999999999924e+00 -4.754979999999999762e-01 -8.568710000000000493e-01 1.469937000000000049e+00 2.096426000000000123e+00 1.823579999999999923e-01 1.418943999999999983e+00 -1.461101999999999901e+00 1.036850000000000049e+00 1.314910999999999941e+00 -5.446899999999999659e-02 1.309061999999999948e+00 3.909107000000000109e+00 -7.609380000000000033e-01 -2.385440000000000060e-01 3.551944000000000212e+00 -9.856470000000000509e-01 -4.101207999999999743e+00 -3.817639999999999922e+00 -1.242615999999999943e+00 -1.371361000000000052e+00 1.325004000000000071e+00 -1.629836999999999980e+00 5.210810000000000164e-01 -2.701939999999999897e-01 8.010899999999999965e-02 -4.245032000000000139e+00 -7.949869999999999992e-01 -2.749144999999999950e+00 3.026530000000000165e+00 -4.638590000000000213e-01 1.470634999999999915e+00 -1.304702000000000028e+00 -6.884919999999999929e-01 1.431089000000000055e+00 7.246230000000000171e-01 1.253892999999999924e+00 7.708739999999999482e-01 -8.154489999999999794e-01 2.418919999999999959e-01 5.601749999999999785e-01 -1.667863000000000095e+00 -4.260599999999999943e-01 9.446609999999999729e-01
-2.306325999999999876e+00 -6.193762999999999685e+00 2.575712999999999919e+00 1.124962000000000018e+00 -1.261689000000000060e+00 2.173499000000000070e+00 2.259567000000000103e+00 2.560140000000000193e-01 9.975589999999999735e-01 7.738949999999999996e-01 -1.773160999999999987e+00 -5.992039999999999589e-01 -7.253169999999999895e-01 9.411380000000000301e-01 -4.546979999999999911e-01 2.453854999999999897e+00 1.894095000000000084e+00 8.294909999999999783e-01 -1.350743000000000027e+00 1.628177999999999903e+00 4.499699999999999811e-01 3.277092999999999812e+00 -5.327030000000000376e-01 3.476400000000000323e-02 7.572429999999999994e-01 6.542299999999999782e-01 -1.266809999999999881e-01 9.139399999999999746e-01 -1.314921000000000006e+00 9.799980000000000357e-01 1.902119999999999922e-01 6.078390000000000182e-01 -8.953830000000000400e-01 -1.015913000000000066e+00 9.479809999999999626e-01 2.866339999999999999e-01 -3.987129999999999841e-01 -3.663444999999999840e+00 1.136879999999999891e+00 1.901866000000000057e+00 -5.951200000000000240e-02 5.073469999999999924e-01 2.290855000000000086e+00 3.589899999999999758e-01 -1.354845000000000077e+00 3.367720000000000158e-01 1.799389999999999878e-01 8.435700000000000420e-01 4.169089999999999741e-01 1.994440000000000102e-01 1.646401999999999921e+00 4.216289999999999760e-01 1.967000000000000137e-01 2.193195999999999923e+00 8.991440000000000543e-01 7.068780000000000063e-01 -1.669170000000000098e-01 -2.314821999999999935e+00 2.859977999999999909e+00 -1.152843999999999980e+00 -2.133738000000000135e+00 -2.189705000000000013e+00 -2.335605999999999849e+00 -2.867499999999999910e-02 5.485307999999999851e+00 -2.732460999999999807e+00 -7.574049999999999949e-01 2.377657999999999827e+00 1.399839999999999973e-01 -3.610183999999999838e+00 -7.245800000000000018e-01 -3.082550000000000012e-01 -5.592000000000000304e-01 -5.554879999999999818e-01 -3.104180000000000272e-01 -7.546680000000000055e-01 -1.007490999999999914e+00 -2.030486999999999931e+00 -9.327260000000000550e-01 7.818429999999999547e-01 -8.002679999999999794e-01 -1.412400000000000044e-01 9.667409999999999615e-01 3.806780000000000164e-01 1.376308000000000087e+00 -1.535130000000000106e+00 4.142440000000000011e-01 2.010800999999999839e+00 2.737399999999999903e-02 -1.583606999999999987e+00 -3.673890000000000211e-01 1.123988999999999905e+00 1.217497000000000051e+00 -9.911429999999999962e-01 -1.179904000000000064e+00 -1.320429999999999993e+00 -9.214280000000000248e-01 2.411210000000000020e-01 1.209740999999999955e+00 1.255174000000000012e+00 2.063293999999999961e+00 -4.413090000000000068e-01 -8.869719999999999827e-01 -7.052059999999999995e-01 -1.236005000000000020e+00 -2.463620999999999839e+00 -1.802033999999999914e+00 -1.677490000000000092e-01
5.770229999999999526e-01 -9.321000000000000396e-01 1.063009000000000093e+00 7.609949999999999770e-01 1.055207999999999924e+00 -1.547219999999999984e-01 4.856100000000000000e-02 -2.082509999999999917e-01 -1.647207000000000088e+00 1.329787999999999970e+00 -3.821359999999999757e-01 -4.126750000000000140e-01 -7.171299999999999897e-02 -1.348073999999999995e+00 1.559309999999999974e+00 6.295089999999999852e-01 1.390109000000000039e+00 2.073341000000000101e+00 -5.532059999999999755e-01 2.957850000000000201e-01 -2.023401999999999923e+00 -2.437403000000000208e+00 -1.569817000000000018e+00 -1.289973000000000036e+00 -2.116499999999999979e-02 -1.611995000000000067e+00 -2.224146000000000178e+00 4.038562999999999903e+00 2.279154000000000124e+00 4.345933999999999742e+00 4.828100000000000169e-01 -5.830710000000000059e-01 1.468158999999999992e+00 2.926076000000000121e+00 7.748019999999999907e-01 4.999029999999999863e-01 1.942199999999999829e-02 2.107308000000000181e+00 -1.226995999999999976e+00 -1.998300000000000076e-01 -2.317409000000000052e+00 -1.627416999999999891e+00 1.351501000000000063e+00 1.267285999999999913e+00 1.082791999999999977e+00 2.061916000000000082e+00 6.117920000000000025e-01 2.257180000000000020e-01 1.713356000000000101e+00 -9.411129999999999773e-01 2.375109999999999999e-01 1.340149999999999952e-01 -8.050300000000000511e-02 2.255989999999999940e-01 2.086651999999999951e+00 -9.322359999999999536e-01 1.159860000000000058e-01 6.074869999999999992e-01 4.262599999999999723e-02 -1.301563000000000025e+00 -2.074672000000000072e+00 -1.130166999999999922e+00 2.337140000000000051e-01 1.800599999999999978e-01 -1.226226000000000038e+00 -1.168584999999999985e+00 -1.905971000000000082e+00 -2.285870000000000068e+00 -4.920999999999999819e-01 -9.666940000000000532e-01 1.223573999999999939e+00 -6.598870000000000013e-01 3.251999999999999891e-01 1.993508000000000058e+00 2.225188999999999862e+00 -9.417210000000000303e-01 1.449259999999999993e+00 9.102879999999999860e-01 1.771549000000000040e+00 2.741979999999999973e-01 3.181510000000000171e-01 -5.621744999999999770e+00 -3.489399999999999835e+00 -9.555500000000000105e-02 -2.265553000000000150e+00 -1.518891999999999909e+00 3.116680000000000006e-01 -1.990579000000000098e+00 -1.084089999999999998e+00 -2.193385000000000140e+00 -8.184669999999999446e-01 1.766988000000000003e+00 -1.029042999999999930e+00 9.974680000000000213e-01 9.154259999999999620e-01 2.956431999999999949e+00 -4.815269999999999828e-01 2.687120999999999871e+00 -3.445429999999999882e-01 -1.112360999999999933e+00 -7.829380000000000228e-01 -2.146250000000000102e-01 7.024329999999999741e-01 1.981459999999999999e+00 -8.286339999999999817e-01 -1.281779999999999919e+00 3.086840000000000139e-01 -9.182470000000000354e-01
2.195139000000000173e+00 -6.291339999999999710e-01 -2.280539000000000094e+00 -2.443329999999999946e-01 -6.997370000000000534e-01 8.189959999999999463e-01 5.329110000000000236e-01 -5.649000000000000375e-03 3.518410000000000148e-01 -1.608030000000000070e+00 -7.291760000000000463e-01 2.693524000000000029e+00 -6.191862000000000421e+00 3.987392999999999965e+00 -5.214619999999999811e-01 -1.477211999999999970e+00 1.756974999999999953e+00 -1.608449000000000018e+00 1.771837000000000106e+00 -1.138608000000000064e+00 -2.734699999999999978e-02 3.117713999999999874e+00 2.032637999999999945e+00 9.691189999999999527e-01 -1.281825999999999910e+00 -8.697310000000000318e-01 -4.014070000000000138e-01 -9.846890000000000365e-01 -3.910040000000000182e-01 -1.279420000000000002e-01 -3.996239999999999792e-01 2.403218999999999994e+00 -1.159901999999999989e+00 2.626898999999999873e+00 -8.577700000000000602e-02 5.847120000000000095e-01 5.191660000000000164e-01 -3.901740000000000208e-01 -1.036955000000000071e+00 -4.522889999999999966e-01 -7.678930000000000478e-01 1.977316000000000074e+00 -7.604239999999999888e-01 2.568547999999999831e+00 3.076524000000000036e+00 -8.913799999999999502e-02 -5.536224999999999952e+00 5.267889999999999517e-01 -1.487522000000000011e+00 -6.662299999999999889e-01 -1.175772999999999957e+00 2.747523999999999855e+00 8.761109999999999731e-01 -4.685840000000000005e-01 -1.790424000000000015e+00 2.783499999999999863e-02 3.148969999999999825e-01 -6.745700000000000307e-02 -4.020500000000000185e-01 3.451023000000000174e+00 1.768820000000000114e-01 9.258210000000000051e-01 -1.983250000000000013e-01 1.793760000000000077e-01 -2.896540000000000226e-01 4.159550000000000192e-01 2.293598999999999943e+00 -1.758270999999999917e+00 9.363590000000000524e-01 6.685539999999999816e-01 -1.238521999999999901e+00 1.435610999999999970e+00 -8.058570000000000455e-01 4.254349000000000380e+00 -2.873768000000000100e+00 -9.391979999999999773e-01 -2.062746999999999886e+00 -4.287679999999999825e-01 -2.276416999999999913e+00 6.067139999999999755e-01 4.352269999999999750e-01 1.390049999999999897e-01 5.240504999999999747e+00 -2.101433000000000106e+00 2.430702000000000140e+00 -1.434640000000000082e-01 -4.862480000000000135e-01 -2.779020000000000046e+00 -3.153989999999999849e-01 7.130619999999999736e-01 1.010286000000000017e+00 -3.653449999999999753e-01 -1.982356000000000007e+00 4.359130000000000393e+00 -2.658974999999999866e+00 -2.721585000000000143e+00 1.271231999999999918e+00 -2.130558000000000174e+00 -1.544253000000000098e+00 -8.645059999999999967e-01 9.897049999999999459e-01 3.431915000000000049e+00 -5.844899999999999540e-01 3.598660000000000192e-01 -4.182089999999999974e-01 -9.556369999999999587e-01 -2.755358000000000196e+00 -5.695649999999999880e-01
-5.967430000000000234e-01 -1.089803999999999995e+00 -1.297649000000000052e+00 -4.738740000000000174e-01 1.024080000000000101e+00 1.626727000000000034e+00 1.238801000000000041e+00 -7.363560000000000105e-01 -7.281189999999999607e-01 -2.386858000000000146e+00 4.722999999999999768e-03 1.104662999999999951e+00 3.400139999999999829e-01 2.463249999999999884e-01 7.857450000000000268e-01 -1.767241999999999980e+00 -6.042999999999999761e-02 -1.602641999999999900e+00 -3.972990000000000133e-01 1.538688000000000056e+00 4.280199999999999977e-02 -1.197557999999999900e+00 1.552057999999999938e+00 -2.228569999999999995e-01 1.512423000000000073e+00 -8.378100000000000547e-01 2.040141000000000204e+00 -5.275555999999999912e+00 -2.252101000000000131e+00 4.151856000000000435e+00 -2.518098000000000170e+00 1.175365999999999911e+00 1.844956000000000040e+00 -1.608149999999999968e+00 9.899999999999999946e-04 9.941729999999999734e-01 4.049479999999999746e-01 -6.779100000000000403e-02 -7.401149999999999674e-01 1.297190000000000010e-01 1.384004000000000012e+00 7.333300000000000374e-01 -5.696729999999999849e-01 -7.898070000000000368e-01 1.473730000000000040e-01 3.461319999999999952e-01 8.375000000000000222e-01 5.303740000000000121e-01 2.390343000000000107e+00 -1.051852999999999927e+00 -5.715649999999999897e-01 -1.128360999999999947e+00 -7.101830000000000087e-01 -3.173150000000000137e-01 3.853887999999999980e+00 -2.898193000000000019e+00 -2.119270000000000043e-01 2.210643999999999831e+00 -1.628595000000000015e+00 1.514510000000000023e-01 4.681119999999999726e-01 4.027760000000000229e-01 -2.051299999999999901e+00 -9.867059999999999720e-01 -1.592399999999999927e-01 1.223892999999999898e+00 2.325429000000000190e+00 -3.618899999999999895e-02 2.355939999999999979e-01 2.223489999999999911e-01 -1.281220999999999943e+00 -7.779420000000000224e-01 -1.777268999999999988e+00 -4.571279999999999788e-01 -6.054540000000000477e-01 4.847739999999999827e-01 -5.487109999999999488e-01 -6.373860000000000081e-01 -1.336935999999999902e+00 1.137536000000000103e+00 -8.569849999999999968e-01 1.655723999999999974e+00 -8.863410000000000455e-01 -2.677200000000000135e-01 -3.816599999999999854e-02 -1.162519999999999942e-01 -1.275837000000000110e+00 1.248197999999999919e+00 2.157830000000000026e-01 -1.047229999999999966e-01 1.670509999999999939e+00 3.482315999999999967e+00 -8.645310000000000494e-01 -3.195990000000000220e-01 1.126840999999999982e+00 -1.150795000000000012e+00 8.862360000000000237e-01 -1.777911000000000019e+00 -1.819185000000000052e+00 1.887499999999999942e-02 9.464519999999999600e-01 1.287654999999999994e+00 -1.755400000000000016e-01 7.855769999999999698e-01 7.379199999999999648e-02 1.146509000000000000e+00 1.524902999999999897e+00 -8.704779999999999740e-01
-6.311620000000000008e-01 8.096729999999999761e-01 -4.134660000000000002e-01 1.004772999999999916e+00 -1.322372000000000103e+00 -9.410579999999999501e-01 1.135699999999999932e+00 -8.054230000000000000e-01 -1.553390000000000049e-01 1.456449000000000105e+00 1.232944000000000040e+00 2.146270000000000122e-01 -1.093893000000000004e+00 1.255737000000000103e+00 6.677469999999999795e-01 1.605426999999999937e+00 2.535999999999999921e-01 5.625740000000000185e-01 -5.333130000000000370e-01 -3.237413999999999792e+00 -8.874959999999999516e-01 -9.188770000000000548e-01 -1.653483000000000036e+00 -5.736539999999999973e-01 5.237770000000000481e-01 -1.299701999999999913e+00 1.782404000000000099e+00 -3.967249999999999943e-01 -2.615123000000000086e+00 2.592458000000000151e+00 -1.099633000000000083e+00 1.950776999999999983e+00 -1.900706999999999924e+00 1.080492999999999926e+00 -1.451475000000000071e+00 -5.017059999999999853e-01 8.268689999999999651e-01 2.076870000000000105e-01 -1.292078000000000060e+00 -3.571391000000000204e+00 2.000859999999999861e+00 2.476590999999999987e+00 -3.288543000000000216e+00 5.253340999999999816e+00 3.362702000000000080e+00 7.473330000000000251e-01 -4.422430000000000305e+00 1.231389000000000067e+00 2.635704000000000047e+00 -1.288923999999999959e+00 -1.083522000000000096e+00 1.880095999999999989e+00 6.646680000000000366e-01 -3.015050000000000008e+00 1.945996999999999977e+00 1.339296999999999960e+00 -5.615940000000000376e-01 2.561577999999999911e+00 2.047329999999999983e-01 -1.893305000000000016e+00 -1.485897999999999941e+00 1.483139999999999903e+00 1.048707000000000056e+00 -5.228350000000000497e-01 3.005899999999999891e-02 7.047020000000000506e-01 2.177824999999999900e+00 5.473789999999999489e-01 -2.306833000000000133e+00 4.971166000000000196e+00 -3.622545000000000126e+00 -3.868684000000000012e+00 -1.174047000000000063e+00 4.735710000000000197e-01 9.174020000000000508e-01 -4.730650000000000133e-01 -2.097990000000000133e-01 1.739792000000000005e+00 -9.884399999999999853e-01 -6.714750000000000441e-01 2.008535000000000181e+00 -1.043854000000000060e+00 3.792073999999999945e+00 -2.925056999999999796e+00 -1.176968000000000014e+00 3.322430000000000105e-01 2.312584999999999891e+00 -8.660109999999999753e-01 -1.924530000000000129e-01 2.773645000000000138e+00 -4.537559999999999927e-01 4.522820000000000173e-01 -1.241128999999999927e+00 1.418290000000000051e+00 -1.173739000000000088e+00 2.207132000000000094e+00 -3.963007000000000168e+00 -1.582823000000000091e+00 -1.825862000000000096e+00 -3.027900000000000036e-02 1.982987999999999973e+00 2.569879999999999942e-01 -6.241470000000000073e-01 -4.898649999999999949e-01 -1.335280000000000022e+00 -1.635634000000000032e+00 1.771992000000000012e+00 -1.381600000000000050e-01
