1.800089999999999968e+00 -3.398010000000000197e-01 -9.600319999999999965e-01 3.733611999999999931e+00 5.565799999999999637e-01 -5.945399999999999574e-01 -1.094433999999999907e+00 -9.053940000000000321e-01 -1.474054999999999893e+00 -5.176230000000000553e-01 3.230469999999999731e-01 -9.339460000000000539e-01 2.822709999999999941e-01 2.489689999999999959e-01 -1.757997999999999950e+00 -8.287759999999999572e-01 3.644906000000000201e+00 -1.685843999999999898e+00 -6.510499999999999621e-02 7.317949999999999733e-01 -3.795950000000000157e-01 2.590087000000000028e+00 1.517908999999999953e+00 -1.859191999999999956e+00 8.670689999999999786e-01 -3.619669999999999832e-01 1.501104999999999912e+00 -7.887830000000000119e-01 -6.999459999999999571e-01 -8.375350000000000295e-01 4.322949999999999848e-01 -2.806707999999999981e+00 1.405279999999999863e-01 -5.356723999999999819e+00 5.658571000000000240e+00 -2.617358999999999991e+00 9.978190000000000115e-01 -8.836499999999999910e-02 -9.690290000000000292e-01 -1.850769000000000108e+00 -2.848517000000000188e+00 -1.658029999999999893e+00 8.990359999999999463e-01 5.970410000000000439e-01 2.119260000000000144e+00 6.921800000000000175e-01 6.704240000000000199e-01 3.038898999999999795e+00 -1.991238000000000063e+00 -3.795669999999999877e-01 7.644570000000000531e-01 1.506914000000000087e+00 -8.473810000000000509e-01 -1.192677999999999905e+00 6.494959999999999622e-01 7.865990000000000482e-01 -7.889500000000000401e-01 8.698788000000000409e+00 -3.894331999999999905e+00 3.434435999999999822e+00 -3.297459999999999836e-01 5.211900000000000421e-01 -1.897129000000000065e+00 6.725700000000000012e-01 -5.072189999999999754e-01 4.877399999999999791e-02 -4.322700000000000153e-02 2.971480999999999817e+00 1.677689999999999904e+00 -2.193061000000000149e+00 3.405612999999999779e+00 5.163800000000000334e-02 -2.238690000000000124e-01 -2.785800000000000082e-02 2.809999999999999998e-03 -2.519375000000000142e+00 1.404115999999999920e+00 2.338725999999999861e+00 -4.021613000000000326e+00 -1.134088999999999903e+00 4.896429999999999949e-01 -5.483259999999999801e-01 1.349507999999999930e+00 -8.258090000000000153e-01 -1.132077999999999918e+00 7.652940000000000298e-01 6.751040000000000374e-01 -8.243699999999999639e-02 -7.117734999999999701e+00 1.936283999999999894e+00 1.954518999999999895e+00 -2.584589999999999943e+00 -1.772600000000000009e-01 -2.189559000000000033e+00 -6.095749999999999780e-01 2.389623999999999970e+00
2.229613000000000067e+00 -1.538307000000000091e+00 1.911269999999999913e-01 -2.196461000000000219e+00 -2.052833999999999826e+00 -6.114119999999999555e-01 6.468500000000000638e-02 1.131394000000000011e+00 -1.789290000000000047e-01 -7.322520000000000140e-01 2.367299999999999960e-02 -3.092775000000000052e+00 2.687370000000000037e-01 -2.023848000000000091e+00 -4.930019999999999958e-01 3.982589999999999741e-01 3.512609999999999899e-01 6.699230000000000462e-01 6.507499999999999396e-02 1.784043999999999963e+00 6.908379999999999521e-01 1.221907000000000076e+00 6.025200000000000000e-02 1.921070000000000000e-01 8.231730000000000436e-01 -1.102921999999999958e+00 -2.833318999999999921e+00 1.470998000000000028e+00 -5.944549999999999557e-01 1.314762999999999904e+00 -8.372570000000000290e-01 6.550259999999999971e-01 3.691880000000000162e-01 2.734433999999999809e+00 2.291707000000000161e+00 1.177734999999999976e+00 2.243014000000000063e+00 1.045152999999999999e+00 -7.925470000000000015e-01 -4.613185999999999787e+00 9.260190000000000365e-01 -6.009349999999999969e-01 1.288369000000000097e+00 -5.500119999999999454e-01 -1.301485000000000003e+00 -2.851650000000000018e-01 -1.070738200000000084e+01 -1.845113999999999921e+00 -1.156578000000000106e+00 -2.365349000000000146e+00 6.115209999999999813e-01 1.115669000000000022e+00 -1.980323000000000055e+00 -1.605374000000000079e+00 -1.113159999999999983e-01 8.143730000000000135e-01 6.360050000000000425e-01 7.167630000000000390e-01 3.244006000000000167e+00 1.132797000000000054e+00 -5.778290000000000370e-01 1.252725000000000088e+00 1.699380000000000057e-01 -1.080300000000000010e-02 6.088077000000000183e+00 3.466956000000000149e+00 -7.643700000000000494e-02 -4.121989999999999821e-01 4.856929999999999858e-01 -2.449940999999999924e+00 4.361160000000000037e-01 8.306919999999999860e-01 -1.252771999999999997e+00 -2.124718999999999802e+00 -1.551463999999999954e+00 -8.897610000000000241e-01 1.578994000000000009e+00 1.596106000000000025e+00 -2.613701999999999970e+00 1.633918999999999899e+00 -6.747009999999999952e-01 1.239265000000000061e+00 7.325519999999999810e-01 2.632939999999999725e-01 1.703290000000000082e-01 -1.895950000000000135e-01 8.271159999999999624e-01 2.655831000000000053e+00 1.762280999999999986e+00 2.697899999999999951e-02 7.113120000000000553e-01 -4.631029999999999869e-01 3.951620000000000132e-01 -1.613971999999999962e+00 2.934769999999999879e-01 5.331169999999999520e-01
-5.999900000000000233e-01 7.965999999999999748e-01 1.597158000000000078e+00 8.111261999999999972e+00 -3.416173000000000126e+00 -1.593209000000000097e+00 -5.901990000000000292e-01 -3.087778000000000134e+00 -3.509993999999999836e+00 -3.702780999999999878e+00 -2.507299000000000166e+00 -1.728256999999999932e+00 2.032178000000000040e+00 -8.839040000000000230e-01 -1.259662999999999977e+00 -4.358299999999999952e-01 1.625804999999999945e+00 -7.237959999999999949e-01 -1.523536000000000001e+00 3.176899999999999724e-01 -3.114145000000000163e+00 -1.010250000000000092e+00 -1.422395000000000076e+00 4.603505000000000180e+00 1.743254999999999999e+00 1.954939999999999900e+00 -1.695596000000000103e+00 -1.262485999999999997e+00 -8.052000000000000129e-03 -4.474279999999999924e-01 -6.565689999999999582e-01 -2.638088000000000211e+00 -6.590300000000000047e-01 2.727605000000000057e+00 2.208194999999999908e+00 1.871742000000000017e+00 -2.263688000000000144e+00 2.146615000000000162e+00 -2.599920000000000009e+00 -1.161974000000000062e+00 1.311828999999999912e+00 -1.261837000000000097e+00 2.168597999999999804e+00 -3.368769999999999820e-01 8.862449999999999495e-01 2.452583999999999875e+00 9.366790000000000393e-01 -8.755789999999999962e-01 7.226930000000000298e-01 7.852599999999999580e-01 2.913490000000000246e-01 2.762793999999999972e+00 -3.104960999999999860e+00 -6.357460000000000333e-01 -1.322159000000000084e+00 -3.103870000000000240e-01 2.061383000000000187e+00 -2.869311999999999863e+00 1.079920999999999909e+00 -2.574099999999999999e-02 -1.368036999999999948e+00 -1.257859000000000060e+00 1.349077000000000082e+00 -1.316872999999999960e+00 3.276069999999999816e-01 8.271650000000000391e-01 1.060983999999999927e+00 -4.230849999999999889e-01 1.499746999999999941e+00 -8.731250000000000400e-01 -1.584902999999999951e+00 -1.818653999999999993e+00 2.584360999999999908e+00 4.963899999999999979e-01 -4.654840000000000089e-01 -7.897425000000000139e+00 3.881469000000000058e+00 4.206864000000000381e+00 -5.991020000000000234e-01 3.044453999999999994e+00 7.113680000000000003e-01 -3.767079999999999873e-01 -1.413656000000000024e+00 3.128099999999999770e-01 -2.818356000000000083e+00 -9.649419999999999664e-01 1.933816999999999897e+00 1.616100000000000037e-01 2.697604000000000113e+00 -5.736379999999999812e-01 2.126942999999999806e+00 1.983550000000000035e-01 1.581398000000000081e+00 3.993532000000000082e+00 -4.490560000000000107e-01 -7.459120000000000195e-01
-1.574260999999999910e+00 -1.381334999999999980e+00 -1.883440999999999921e+00 -5.317730000000000512e-01 -1.173569000000000084e+00 -9.019610000000000127e-01 7.649249999999999661e-01 -7.237000000000000377e-03 -3.011298000000000030e+00 -1.025100000000000039e-01 -7.491609999999999658e-01 3.337524999999999853e+00 -4.870280000000000165e-01 -2.086117000000000221e+00 -8.985570000000000501e-01 2.015270000000000117e+00 -1.989111000000000073e+00 2.274970000000000159e+00 2.238140000000000129e-01 3.550049000000000010e+00 -1.539066999999999963e+00 6.602839999999999820e-01 2.188090000000000035e-01 -1.323628999999999944e+00 2.491693000000000158e+00 -1.721594999999999986e+00 -1.269910000000000094e+00 5.103239999999999998e-01 6.409019999999999717e-01 8.344089999999999563e-01 -5.311090000000000533e-01 -3.236254000000000186e+00 -4.362670000000000159e-01 -7.715880000000000516e-01 5.673700000000000410e-01 3.517646000000000051e+00 1.210693000000000019e+00 -8.087894999999999612e+00 -3.224578999999999862e+00 1.494739999999999958e-01 1.255560999999999927e+00 -1.071051999999999893e+00 -2.067239999999999966e+00 1.721880000000000077e-01 3.376379999999999937e-01 5.319679999999999964e-01 -3.270586999999999911e+00 -8.724730000000000540e-01 -2.661535000000000206e+00 2.392380000000000062e-01 1.089058999999999999e+00 -1.533566999999999902e+00 -1.113205000000000000e+00 -2.161929000000000212e+00 -9.790440000000000254e-01 1.677705000000000002e+00 1.836608000000000018e+00 1.499705999999999984e+00 -5.430460000000000287e-01 -1.267244000000000037e+00 1.487629000000000090e+00 1.589170999999999889e+00 9.637750000000000483e-01 2.390899999999999970e-01 2.425279000000000185e+00 -8.682079999999999798e-01 2.657982000000000067e+00 7.895095999999999670e+00 3.577841999999999967e+00 -1.528051000000000048e+00 -2.135809999999999931e-01 4.541609999999999814e-01 1.013643000000000072e+00 7.423760000000000359e-01 2.947586999999999957e+00 -5.220679999999999765e-01 1.151604999999999990e+00 -1.344689000000000023e+00 -9.990149999999999864e-01 7.295310000000000406e-01 -2.160250000000000004e+00 1.633386000000000005e+00 6.422080000000000011e-01 -8.255660000000000220e-01 6.077320000000000499e-01 -2.643955000000000055e+00 2.799930999999999948e+00 -2.537589000000000095e+00 3.177264000000000088e+00 1.599912999999999919e+00 -2.813820000000000210e-01 1.054232999999999976e+00 1.274075999999999986e+00 -5.898510000000000142e-01 4.880619999999999958e-01 -1.785017999999999994e+00
-7.654729999999999590e-01 -1.196477999999999930e+00 -9.317229999999999679e-01 2.024553000000000047e+00 1.429900000000000060e-01 3.706820000000000115e-01 2.868932000000000038e+00 2.019445000000000157e+00 3.341495999999999800e+00 8.456500000000000128e-02 4.554198000000000413e+00 -1.020497999999999905e+00 -2.271285999999999916e+00 -1.878290999999999933e+00 -2.486431000000000058e+00 -2.764527999999999874e+00 -4.653240000000000154e-01 1.600424999999999986e+00 -1.387610000000000010e+00 -9.282890000000000308e-01 1.699748000000000037e+00 1.062749999999999945e-01 5.841870000000000118e-01 -6.384239999999999915e-01 -1.360254000000000074e+00 -1.959549999999999903e-01 -2.517180999999999891e+00 -3.937010000000000232e-01 1.719174999999999898e+00 3.249610999999999805e+00 1.859407000000000032e+00 2.572658999999999807e+00 -2.851004000000000094e+00 3.012105000000000032e+00 1.735403999999999947e+00 4.008024999999999949e+00 -1.023563000000000001e+00 -2.430738999999999983e+00 6.858140000000000347e-01 1.906533000000000033e+00 1.023339999999999916e+00 2.894003000000000103e+00 4.392630000000000146e-01 9.537489999999999579e-01 -1.738903000000000088e+00 -2.729079999999999839e-01 1.416109999999999980e+00 -2.935530000000000084e-01 2.903195000000000192e+00 -2.464106999999999825e+00 1.975457999999999936e+00 -1.264955999999999969e+00 -8.771919999999999717e-01 1.687405000000000044e+00 -2.257965000000000000e+00 2.127829999999999999e-01 -1.313784000000000063e+00 -1.658983000000000096e+00 -8.486299999999999955e-01 3.154359999999999942e-01 1.414743000000000084e+00 -1.239888000000000101e+00 1.397308999999999912e+00 1.155256000000000061e+00 6.042889999999999651e-01 -3.527769999999999850e+00 -1.601007000000000069e+00 8.611809999999999743e-01 -5.922479999999999967e-01 -1.846222999999999947e+00 -2.746909000000000045e+00 1.517451000000000105e+00 -1.607976000000000072e+00 5.530880000000000241e-01 -1.771174999999999944e+00 6.738650000000000473e-01 -1.962399999999999922e+00 2.204080999999999957e+00 2.203978999999999910e+00 -1.446660000000000057e+00 -4.990394000000000219e+00 -1.006910000000000027e-01 -1.481409999999999949e-01 2.263400000000000134e-01 9.576740000000000252e-01 3.895200000000000051e-02 -1.934458000000000011e+00 -1.316076999999999941e+00 9.355290000000000550e-01 1.056379999999999958e-01 -7.179010000000000113e-01 4.729510000000000103e-01 -9.892140000000000377e-01 1.000758999999999954e+00 -1.571026000000000034e+00 3.178360000000000074e-01
