8.626916658000000737e+00 0.000000000000000000e+00 0.000000000000000000e+00 4.305810128000000070e+00 7.474828119999999743e+00 0.000000000000000000e+00 4.383186187999999817e+00 2.434429295000000160e+00 6.871363866000000264e+00
8.624040613000000022e+00 0.000000000000000000e+00 0.000000000000000000e+00 4.284351902000000045e+00 7.366399992999999924e+00 0.000000000000000000e+00 4.463651859999999694e+00 2.429819922000000076e+00 7.001453806999999863e+00
8.504817077000000225e+00 0.000000000000000000e+00 0.000000000000000000e+00 4.361287601999999985e+00 7.544330142999999822e+00 0.000000000000000000e+00 4.327222325000000147e+00 2.521762171000000219e+00 7.038687969999999794e+00
8.615924953000000386e+00 0.000000000000000000e+00 0.000000000000000000e+00 4.334037997000000253e+00 7.469148503999999633e+00 0.000000000000000000e+00 4.371870014999999832e+00 2.418079770999999933e+00 6.957575768999999966e+00
8.498277034999999202e+00 0.000000000000000000e+00 0.000000000000000000e+00 4.160048300999999782e+00 7.421748995999999821e+00 0.000000000000000000e+00 4.281796432000000152e+00 2.481444109999999981e+00 6.957267307999999595e+00
8.413878546999999486e+00 0.000000000000000000e+00 0.000000000000000000e+00 4.152565434000000444e+00 7.478233367999999714e+00 0.000000000000000000e+00 4.144630810999999859e+00 2.512487079000000012e+00 6.906941684999999609e+00
8.551919687999999908e+00 0.000000000000000000e+00 0.000000000000000000e+00 4.279729696999999611e+00 7.580994966999999640e+00 0.000000000000000000e+00 4.268161798999999590e+00 2.740605529000000207e+00 7.022005914000000182e+00
8.603455050000000881e+00 0.000000000000000000e+00 0.000000000000000000e+00 4.381481539000000147e+00 7.445746233000000380e+00 0.000000000000000000e+00 4.328419300000000192e+00 2.461040265999999921e+00 7.052656435000000279e+00
8.587841649999999660e+00 0.000000000000000000e+00 0.000000000000000000e+00 4.226016133999999980e+00 7.482259922999999979e+00 0.000000000000000000e+00 4.411797400000000202e+00 2.389535689000000129e+00 7.036119464000000434e+00
8.515135275000000448e+00 0.000000000000000000e+00 0.000000000000000000e+00 4.214142932999999758e+00 7.342583547000000266e+00 0.000000000000000000e+00 4.456744612999999688e+00 2.467578721999999836e+00 7.047424142999999752e+00
8.619745726999999746e+00 0.000000000000000000e+00 0.000000000000000000e+00 4.406289876999999855e+00 7.397045998000000289e+00 0.000000000000000000e+00 4.280592696000000252e+00 2.466602377000000068e+00 6.999094615999999824e+00
8.613174709999999124e+00 0.000000000000000000e+00 0.000000000000000000e+00 4.374227449000000156e+00 7.410822099999999857e+00 0.000000000000000000e+00 4.133705059000000404e+00 2.476793931000000004e+00 6.985039272999999937e+00
8.563672600000000301e+00 0.000000000000000000e+00 0.000000000000000000e+00 4.113025079999999889e+00 7.525158095000000102e+00 0.000000000000000000e+00 4.191694779999999732e+00 2.466621058999999949e+00 7.030188277999999791e+00
8.605972657000000581e+00 0.000000000000000000e+00 0.000000000000000000e+00 4.318671709000000192e+00 7.565124824999999831e+00 0.000000000000000000e+00 4.306380867999999751e+00 2.485926018999999876e+00 6.920699962999999677e+00
8.492378348000000798e+00 0.000000000000000000e+00 0.000000000000000000e+00 4.205336545999999842e+00 7.357071703999999990e+00 0.000000000000000000e+00 4.419758434000000236e+00 2.473406773999999864e+00 7.097441075999999960e+00
8.645755782000000167e+00 0.000000000000000000e+00 0.000000000000000000e+00 4.422871187000000148e+00 7.489549157999999984e+00 0.000000000000000000e+00 4.317397589999999674e+00 2.520474748999999903e+00 6.979217676000000203e+00
8.644558479000000517e+00 0.000000000000000000e+00 0.000000000000000000e+00 4.294822203999999921e+00 7.567304217000000222e+00 0.000000000000000000e+00 4.267063732999999637e+00 2.556606744000000209e+00 6.885708089000000420e+00
8.629122212000000403e+00 0.000000000000000000e+00 0.000000000000000000e+00 4.325599254000000116e+00 7.494515869999999857e+00 0.000000000000000000e+00 4.345462472000000353e+00 2.636578345000000212e+00 7.059799561000000168e+00
8.668795847000000165e+00 0.000000000000000000e+00 0.000000000000000000e+00 4.269018448999999826e+00 7.492458692999999670e+00 0.000000000000000000e+00 4.203112174000000145e+00 2.576426330999999958e+00 7.045209095999999782e+00
8.468411255999999554e+00 0.000000000000000000e+00 0.000000000000000000e+00 4.181910649999999841e+00 7.398524703999999730e+00 0.000000000000000000e+00 4.197090835000000020e+00 2.505775015000000217e+00 6.943115638000000089e+00
8.470623779000000297e+00 0.000000000000000000e+00 0.000000000000000000e+00 4.428676175999999742e+00 7.576293620000000395e+00 0.000000000000000000e+00 4.407445485000000218e+00 2.546711676000000146e+00 6.933472858000000016e+00
8.674785372000000550e+00 0.000000000000000000e+00 0.000000000000000000e+00 4.385299702000000188e+00 7.399654281000000111e+00 0.000000000000000000e+00 4.213686464000000242e+00 2.382821508999999782e+00 6.981502551000000167e+00
8.451275955999999923e+00 0.000000000000000000e+00 0.000000000000000000e+00 4.309945772999999924e+00 7.359232204000000444e+00 0.000000000000000000e+00 4.253247219000000356e+00 2.388037583000000019e+00 6.937457136999999996e+00
8.559956468999999402e+00 0.000000000000000000e+00 0.000000000000000000e+00 4.336177904000000360e+00 7.383949154999999820e+00 0.000000000000000000e+00 4.200146089000000416e+00 2.369094325999999917e+00 6.976478338999999806e+00
8.724519736999999608e+00 0.000000000000000000e+00 0.000000000000000000e+00 4.125332070999999878e+00 7.334012538999999720e+00 0.000000000000000000e+00 4.234362584000000318e+00 2.408616376999999975e+00 6.997599212999999985e+00
8.457062787999999998e+00 0.000000000000000000e+00 0.000000000000000000e+00 4.284991649000000180e+00 7.411271808000000405e+00 0.000000000000000000e+00 4.162950096000000322e+00 2.461703972000000018e+00 6.943713334999999987e+00
8.582891783999999191e+00 0.000000000000000000e+00 0.000000000000000000e+00 4.257101514999999559e+00 7.465787388999999941e+00 0.000000000000000000e+00 4.323008728999999661e+00 2.509562605000000168e+00 7.025546846000000123e+00
8.692423996000000486e+00 0.000000000000000000e+00 0.000000000000000000e+00 4.337691074000000313e+00 7.378042252000000190e+00 0.000000000000000000e+00 4.272127235000000134e+00 2.436487529999999957e+00 7.086009640000000331e+00
8.733975559999999305e+00 0.000000000000000000e+00 0.000000000000000000e+00 4.494396668000000261e+00 7.462707847999999977e+00 0.000000000000000000e+00 4.282362799999999581e+00 2.429650905999999999e+00 6.815483624999999712e+00
8.470190496000000735e+00 0.000000000000000000e+00 0.000000000000000000e+00 4.180396793999999971e+00 7.427765715999999685e+00 0.000000000000000000e+00 4.185429494000000084e+00 2.465471257999999999e+00 6.938209161999999708e+00
8.600452527999999930e+00 0.000000000000000000e+00 0.000000000000000000e+00 4.388298142000000013e+00 7.523013865000000244e+00 0.000000000000000000e+00 4.324727682999999878e+00 2.425830970999999892e+00 6.873839797999999668e+00
8.333524065000000647e+00 0.000000000000000000e+00 0.000000000000000000e+00 4.152432748999999923e+00 7.303571736000000314e+00 0.000000000000000000e+00 4.061314105000000119e+00 2.522922191000000147e+00 6.886312044000000299e+00
8.487919140000000695e+00 0.000000000000000000e+00 0.000000000000000000e+00 4.183038595000000193e+00 7.423391845000000266e+00 0.000000000000000000e+00 4.201001922999999749e+00 2.489062097000000140e+00 6.974434719999999643e+00
8.715597851000000063e+00 0.000000000000000000e+00 0.000000000000000000e+00 4.388198886999999715e+00 7.300719750999999924e+00 0.000000000000000000e+00 4.156497283000000209e+00 2.440468549000000209e+00 7.100529293000000131e+00
8.712091272000000330e+00 0.000000000000000000e+00 0.000000000000000000e+00 4.270381035999999852e+00 7.469370548999999748e+00 0.000000000000000000e+00 4.362322473999999950e+00 2.370391504000000094e+00 6.960378925999999744e+00
8.562529699000000605e+00 0.000000000000000000e+00 0.000000000000000000e+00 4.335335738000000383e+00 7.348898538000000258e+00 0.000000000000000000e+00 4.383214659000000069e+00 2.471075390000000205e+00 6.882272060000000025e+00
8.582570971999999188e+00 0.000000000000000000e+00 0.000000000000000000e+00 4.243788998000000312e+00 7.463114090999999561e+00 0.000000000000000000e+00 4.376764314999999961e+00 2.549376059000000083e+00 6.897153768999999990e+00
8.531402534999999787e+00 0.000000000000000000e+00 0.000000000000000000e+00 4.179139170000000014e+00 7.345988961999999844e+00 0.000000000000000000e+00 4.417541211999999717e+00 2.344377945000000185e+00 7.037503015000000417e+00
8.739819630999999589e+00 0.000000000000000000e+00 0.000000000000000000e+00 4.324705673999999611e+00 7.453046134000000045e+00 0.000000000000000000e+00 4.233510981000000228e+00 2.429097408000000069e+00 7.079387789000000097e+00
8.629600097999999164e+00 0.000000000000000000e+00 0.000000000000000000e+00 4.214735692999999728e+00 7.359191995999999847e+00 0.000000000000000000e+00 4.010727125999999920e+00 2.426579444999999779e+00 6.976810775999999770e+00
8.540139844000000480e+00 0.000000000000000000e+00 0.000000000000000000e+00 4.270786635000000331e+00 7.512844711999999703e+00 0.000000000000000000e+00 4.251944026000000321e+00 2.519014921000000129e+00 6.889547513000000123e+00
8.642981698999999907e+00 0.000000000000000000e+00 0.000000000000000000e+00 4.430770403000000357e+00 7.526947129999999930e+00 0.000000000000000000e+00 4.430663573000000355e+00 2.606066838999999913e+00 7.099979725999999935e+00
8.634257248000000828e+00 0.000000000000000000e+00 0.000000000000000000e+00 4.334613410000000222e+00 7.484634896000000204e+00 0.000000000000000000e+00 4.364567756999999659e+00 2.668221280000000029e+00 7.078514157999999945e+00
8.601707380000000569e+00 0.000000000000000000e+00 0.000000000000000000e+00 4.302741110000000369e+00 7.485766518000000147e+00 0.000000000000000000e+00 4.286887315999999615e+00 2.500679959999999813e+00 6.922493386000000193e+00
8.571688861000000159e+00 0.000000000000000000e+00 0.000000000000000000e+00 4.270270885999999599e+00 7.357869069000000373e+00 0.000000000000000000e+00 4.466247635000000216e+00 2.356707136999999896e+00 7.129039022999999808e+00
8.579600879999999208e+00 0.000000000000000000e+00 0.000000000000000000e+00 4.211694432999999904e+00 7.529050218000000072e+00 0.000000000000000000e+00 4.349525800000000331e+00 2.596059927999999850e+00 7.162937194999999591e+00
8.397096857999999386e+00 0.000000000000000000e+00 0.000000000000000000e+00 4.202618741000000213e+00 7.454183403000000041e+00 0.000000000000000000e+00 4.192561070000000001e+00 2.602509329000000093e+00 6.941860451000000154e+00
8.654159159000000656e+00 0.000000000000000000e+00 0.000000000000000000e+00 4.315950416999999817e+00 7.518946875000000141e+00 0.000000000000000000e+00 4.335889386999999928e+00 2.626164771000000009e+00 7.044705040000000196e+00
8.616424205999999586e+00 0.000000000000000000e+00 0.000000000000000000e+00 4.386207471999999719e+00 7.543348671999999588e+00 0.000000000000000000e+00 4.332494662000000218e+00 2.454825245999999961e+00 7.139671102000000324e+00
8.609883415000000539e+00 0.000000000000000000e+00 0.000000000000000000e+00 4.248109275000000018e+00 7.292295342000000069e+00 0.000000000000000000e+00 4.413941140999999568e+00 2.295470176999999889e+00 6.919203990999999832e+00
