1.726566000000000045e+01 9.862270000000000536e+00 6.839380000000000237e+00 5.742460000000000342e+00 8.131069999999999354e+00 2.249530000000000030e+00 2.834870000000000001e+00 1.582850000000000090e+00 4.389280000000000292e+00 1.545940000000000092e+00 2.320489999999999942e+00 2.832500000000000018e-01 3.069760000000000044e+00 3.285390000000000033e+00 2.192889999999999784e+00 1.289517000000000024e+01 4.072589999999999932e+00 4.595699999999999896e+00 7.261440000000000339e+00 7.479540000000000077e+00 6.723449999999999704e+00 1.294744999999999990e+01 5.716619999999999813e+00 2.533570000000000100e+00 1.447765000000000057e+01 6.667519999999999669e+00 4.764949999999999797e+00 1.162351999999999919e+01 9.852800000000000225e+00 6.787950000000000372e+00 8.564669999999999561e+00 8.179240000000000066e+00 2.163479999999999848e+00 1.010354000000000063e+01 9.062559999999999505e+00 4.614340000000000330e+00 8.852209999999999468e+00 4.960099999999999731e+00 6.746780000000000221e+00 5.676379999999999981e+00 3.344380000000000130e+00 2.257190000000000030e+00 7.145999999999999908e+00 4.067540000000000155e+00 4.669410000000000061e+00 5.789390000000000036e+00 5.007390000000000008e+00 1.695500000000000063e-01 7.175060000000000215e+00 5.761110000000000397e+00 2.352599999999999802e+00 8.733999999999999986e+00 6.632670000000000066e+00 4.482140000000000235e+00 1.445278000000000063e+01 9.813539999999999708e+00 6.764289999999999914e+00 7.255359999999999587e+00 8.632800000000000473e-01 2.270179999999999865e+00 8.628460000000000463e+00 1.626330000000000053e+00 4.467170000000000307e+00 7.090279999999999916e+00 2.562260000000000204e+00 3.043999999999999831e-02 8.639559999999999462e+00 3.358729999999999993e+00 2.282890000000000086e+00 1.009421999999999997e+01 4.161200000000000010e+00 4.485879999999999868e+00 8.672019999999999840e+00 5.058959999999999901e+00 8.779999999999999610e-03 1.003856999999999999e+01 5.746520000000000294e+00 2.264429999999999943e+00 1.147156999999999982e+01 6.614469999999999850e+00 4.583309999999999995e+00 3.029329999999999856e+00 1.683249999999999913e+00 1.157720000000000082e+00 4.363850000000000229e+00 2.452399999999999913e+00 3.351939999999999920e+00 5.733799999999999564e+00 3.133500000000000174e+00 5.902739999999999654e+00 4.363839999999999719e+00 4.232929999999999637e+00 1.133879999999999999e+00 5.719490000000000407e+00 4.866729999999999556e+00 3.694020000000000081e+00 7.285669999999999646e+00 5.869220000000000326e+00 5.755569999999999631e+00 5.741480000000000139e+00 6.607090000000000352e+00 1.209349999999999925e+00 7.184289999999999843e+00 7.347470000000000390e+00 3.381009999999999849e+00 8.529650000000000176e+00 8.393349999999999866e+00 5.513189999999999813e+00 5.863959999999999617e+00 1.651210000000000067e+00 1.104379999999999917e+00 7.189530000000000420e+00 2.539449999999999985e+00 3.461530000000000218e+00 8.544819999999999638e+00 3.217849999999999877e+00 5.600410000000000110e+00 7.232689999999999841e+00 4.223959999999999937e+00 1.170590000000000019e+00 8.668010000000000659e+00 5.033689999999999998e+00 3.365839999999999943e+00 1.026767000000000074e+01 5.856480000000000352e+00 5.738850000000000229e+00 8.656209999999999738e+00 6.586219999999999963e+00 1.075539999999999941e+00 1.018377000000000088e+01 7.502460000000000129e+00 3.493829999999999991e+00 1.159537000000000084e+01 8.141030000000000655e+00 5.830180000000000362e+00 8.656620000000000203e+00 1.566119999999999957e+00 1.227810000000000068e+00 1.005131000000000085e+01 2.580970000000000208e+00 3.320409999999999862e+00 1.161726999999999954e+01 3.393100000000000005e+00 5.654969999999999608e+00 1.009699999999999953e+01 4.092200000000000060e+00 1.226399999999999935e+00 1.156207000000000029e+01 4.953750000000000320e+00 3.418109999999999982e+00 1.136046999999999940e+01 6.749390000000000001e+00 9.900099999999999456e-01 1.299967000000000006e+01 7.372790000000000177e+00 3.610170000000000101e+00 1.427027000000000001e+01 8.201259999999999550e+00 5.772179999999999644e+00
4.491179999999999950e+00 2.476609999999999978e+00 6.954740000000000144e+00 5.850909999999999833e+00 8.014210000000000278e+00 2.405409999999999826e+00 7.214559999999999640e+00 8.810890000000000555e+00 4.639800000000000146e+00 6.134210000000000385e+00 4.853889999999999816e+00 6.928679999999999950e+00 2.998780000000000001e+00 3.312129999999999797e+00 2.315729999999999844e+00 1.278961999999999932e+01 3.868739999999999846e+00 4.487949999999999662e+00 1.142830999999999975e+01 5.056930000000000369e+00 1.213999999999999975e-02 1.287571999999999939e+01 5.879809999999999981e+00 2.437780000000000058e+00 1.432301999999999964e+01 6.468069999999999986e+00 4.726960000000000051e+00 7.336369999999999614e+00 2.429619999999999891e+00 6.998560000000000336e+00 4.347229999999999706e+00 8.932099999999999485e-01 2.349990000000000023e+00 5.847299999999999720e+00 1.713189999999999991e+00 4.712909999999999933e+00 4.255840000000000067e+00 2.509380000000000166e+00 1.178099999999999981e-01 5.894800000000000040e+00 3.312320000000000153e+00 2.451970000000000205e+00 7.139689999999999870e+00 3.945559999999999956e+00 4.620040000000000369e+00 5.839789999999999814e+00 4.985590000000000188e+00 1.017699999999999994e-01 7.443590000000000373e+00 5.749620000000000175e+00 2.506720000000000059e+00 8.784990000000000521e+00 6.495199999999999640e+00 4.816639999999999588e+00 5.771690000000000431e+00 1.139199999999999935e-01 1.020800000000000041e-01 7.241439999999999877e+00 9.052900000000000391e-01 2.284279999999999866e+00 1.310900999999999961e+01 8.912290000000000489e+00 4.607590000000000074e+00 7.224070000000000213e+00 2.383249999999999869e+00 1.145999999999999970e-02 8.719110000000000582e+00 3.302849999999999842e+00 2.285899999999999821e+00 1.016751999999999967e+01 4.054579999999999629e+00 4.677780000000000271e+00 1.301575000000000060e+01 7.580949999999999633e+00 6.916579999999999728e+00 1.015732000000000035e+01 5.617219999999999658e+00 2.222879999999999967e+00 1.146962000000000081e+01 6.838729999999999976e+00 4.726140000000000008e+00 3.065059999999999896e+00 1.483319999999999972e+00 1.137410000000000032e+00 4.379050000000000331e+00 2.372739999999999849e+00 3.502289999999999903e+00 5.633820000000000050e+00 3.395669999999999966e+00 5.820549999999999891e+00 4.173759999999999692e+00 4.088639999999999830e+00 1.185980000000000034e+00 5.483869999999999578e+00 4.973390000000000200e+00 3.710179999999999811e+00 7.296529999999999738e+00 5.638639999999999652e+00 5.846090000000000231e+00 5.848799999999999777e+00 6.518349999999999866e+00 1.230879999999999974e+00 7.191349999999999909e+00 7.304249999999999687e+00 3.489380000000000148e+00 8.670759999999999579e+00 8.269529999999999603e+00 5.695739999999999803e+00 5.916789999999999772e+00 1.595110000000000028e+00 1.208390000000000075e+00 7.235890000000000377e+00 2.394730000000000025e+00 3.502839999999999954e+00 8.778470000000000439e+00 3.299630000000000063e+00 5.795700000000000074e+00 7.248170000000000002e+00 3.966530000000000111e+00 1.019630000000000036e+00 8.811870000000000758e+00 4.913219999999999921e+00 3.602120000000000211e+00 1.029532000000000025e+01 5.707840000000000025e+00 5.982999999999999652e+00 8.714819999999999567e+00 6.477649999999999686e+00 1.159189999999999943e+00 1.018821999999999939e+01 7.351029999999999731e+00 3.437279999999999891e+00 1.164892000000000039e+01 8.037770000000000081e+00 5.972290000000000099e+00 8.743999999999999773e+00 1.841509999999999980e+00 9.524299999999999988e-01 1.023681999999999981e+01 2.462889999999999802e+00 3.471389999999999976e+00 1.147011999999999965e+01 3.147520000000000095e+00 5.816410000000000302e+00 1.016911999999999949e+01 4.021690000000000431e+00 1.062489999999999934e+00 1.147001999999999988e+01 4.969369999999999621e+00 3.594030000000000058e+00 1.143881999999999977e+01 6.625820000000000043e+00 1.065849999999999964e+00 1.296062000000000047e+01 7.419749999999999623e+00 3.490950000000000220e+00 1.426511999999999958e+01 8.016429999999999723e+00 5.730789999999999829e+00
4.435439999999999827e+00 7.418709999999999916e+00 1.642599999999999894e-01 9.927270000000000039e+00 8.709900000000000420e-01 2.309699999999999864e+00 1.143129000000000062e+01 1.753730000000000011e+00 4.791859999999999786e+00 5.784670000000000201e+00 4.796529999999999738e+00 7.009660000000000224e+00 2.794570000000000221e+00 3.276240000000000041e+00 2.189750000000000085e+00 4.341230000000000366e+00 4.015390000000000015e+00 4.537659999999999805e+00 2.975649999999999906e+00 5.011320000000000441e+00 4.800999999999999712e-02 1.287189000000000050e+01 5.884599999999999831e+00 2.421110000000000095e+00 1.424839000000000055e+01 6.833249999999999602e+00 4.671260000000000190e+00 7.172649999999999970e+00 7.469940000000000246e+00 1.191500000000000059e-01 4.223250000000000171e+00 9.361000000000000432e-01 2.307189999999999852e+00 1.005888999999999989e+01 9.200789999999999580e+00 4.705400000000000027e+00 8.720549999999999358e+00 5.131249999999999645e+00 6.921780000000000044e+00 5.762249999999999872e+00 3.144880000000000120e+00 2.220549999999999802e+00 7.135119999999999685e+00 4.167480000000000295e+00 4.771919999999999717e+00 1.019849999999999923e+01 7.574119999999999742e+00 7.023959999999999759e+00 7.032939999999999969e+00 5.666360000000000063e+00 2.492830000000000101e+00 8.547879999999999256e+00 6.668000000000000149e+00 4.790939999999999976e+00 1.014699000000000062e+01 7.404519999999999769e+00 9.826000000000000012e-02 7.083520000000000039e+00 9.341800000000000104e-01 2.452589999999999826e+00 8.602629999999999555e+00 1.762999999999999901e+00 4.674640000000000128e+00 7.158319999999999794e+00 2.338169999999999860e+00 5.230000000000000274e-03 8.526450000000000529e+00 3.303710000000000147e+00 2.406550000000000189e+00 9.923750000000000071e+00 4.237479999999999691e+00 4.446159999999999890e+00 1.286875999999999998e+01 7.711520000000000152e+00 7.015380000000000393e+00 9.901310000000000500e+00 6.031889999999999752e+00 2.329110000000000014e+00 1.151858999999999966e+01 6.630029999999999646e+00 4.730349999999999611e+00 2.794900000000000162e+00 1.798289999999999944e+00 1.004899999999999904e+00 4.347019999999999662e+00 2.472309999999999786e+00 3.377790000000000070e+00 5.691370000000000040e+00 3.411379999999999857e+00 5.808189999999999742e+00 4.553589999999999804e+00 4.212950000000000195e+00 1.214820000000000011e+00 5.805559999999999832e+00 5.029180000000000206e+00 3.618300000000000072e+00 7.142619999999999969e+00 6.014179999999999637e+00 5.869279999999999831e+00 5.811040000000000205e+00 6.761849999999999916e+00 1.415440000000000031e+00 7.045989999999999753e+00 7.527660000000000018e+00 3.527890000000000192e+00 8.671820000000000306e+00 8.371470000000000411e+00 5.973869999999999791e+00 5.632089999999999819e+00 1.590619999999999923e+00 1.054810000000000025e+00 7.110560000000000436e+00 2.657369999999999788e+00 3.431770000000000209e+00 8.726499999999999702e+00 3.380050000000000221e+00 5.648109999999999964e+00 7.066819999999999879e+00 4.150929999999999787e+00 1.105580000000000007e+00 8.511329999999999174e+00 5.015150000000000219e+00 3.445600000000000218e+00 1.014769000000000077e+01 5.814460000000000406e+00 5.902499999999999858e+00 8.413149999999999906e+00 6.589190000000000325e+00 1.134090000000000042e+00 1.001600999999999964e+01 7.575879999999999725e+00 3.515489999999999782e+00 1.141888999999999932e+01 8.310999999999999943e+00 6.078500000000000014e+00 8.519529999999999603e+00 1.761840000000000073e+00 1.036299999999999999e+00 1.004729000000000028e+01 2.507919999999999927e+00 3.527579999999999938e+00 1.161509000000000036e+01 3.257890000000000175e+00 5.868699999999999584e+00 1.004879000000000033e+01 4.269250000000000433e+00 1.054319999999999924e+00 1.154499000000000031e+01 5.105050000000000310e+00 3.565109999999999779e+00 1.142749000000000059e+01 6.795700000000000074e+00 1.288010000000000099e+00 1.289949000000000012e+01 7.553340000000000387e+00 3.788300000000000001e+00 1.430099000000000053e+01 8.397869999999999280e+00 5.822600000000000442e+00
4.292329999999999757e+00 7.363830000000000098e+00 2.540999999999999856e-02 1.002547000000000033e+01 8.801600000000000534e-01 2.350379999999999914e+00 7.309890000000000221e+00 9.057819999999999538e+00 4.579030000000000378e+00 5.889949999999999797e+00 4.748879999999999768e+00 6.931689999999999685e+00 1.140221000000000018e+01 3.326319999999999943e+00 2.347290000000000099e+00 1.294069000000000003e+01 4.067800000000000082e+00 4.630309999999999704e+00 1.129238999999999926e+01 4.987269999999999648e+00 6.139999999999999625e-03 1.292825000000000024e+01 5.828560000000000407e+00 2.339989999999999792e+00 1.431920000000000037e+01 6.617379999999999818e+00 4.579559999999999853e+00 2.929759999999999920e+00 4.694000000000000256e-02 3.130000000000000143e-02 4.439619999999999678e+00 8.325000000000000178e-01 2.394270000000000120e+00 1.007578999999999958e+01 9.057760000000000034e+00 4.578120000000000189e+00 4.352199999999999847e+00 2.437500000000000000e+00 3.212000000000000272e-02 5.671070000000000277e+00 3.298280000000000101e+00 2.244130000000000180e+00 7.166409999999999947e+00 4.133810000000000429e+00 4.543779999999999930e+00 5.797200000000000131e+00 5.108970000000000233e+00 1.333999999999999908e-01 7.329010000000000247e+00 5.817359999999999864e+00 2.316289999999999960e+00 8.573990000000000222e+00 6.612729999999999997e+00 4.583859999999999602e+00 1.021862999999999921e+01 2.560869999999999980e+00 6.925250000000000128e+00 1.168576999999999977e+01 8.310579999999999856e+00 2.475190000000000001e+00 1.322517000000000031e+01 9.055030000000000356e+00 4.672229999999999883e+00 7.094699999999999562e+00 2.529959999999999987e+00 1.750000000000000167e-02 8.617509999999999337e+00 3.221200000000000063e+00 2.245089999999999808e+00 1.008647000000000027e+01 4.121100000000000207e+00 4.562170000000000059e+00 8.825509999999999522e+00 4.985059999999999825e+00 1.166299999999999976e-01 1.006756999999999991e+01 5.812059999999999782e+00 2.393670000000000186e+00 1.142247000000000057e+01 6.535070000000000157e+00 4.676479999999999748e+00 2.919719999999999871e+00 1.539209999999999967e+00 1.060310000000000086e+00 4.363900000000000112e+00 2.470400000000000151e+00 3.393019999999999925e+00 5.538450000000000095e+00 3.304809999999999803e+00 5.731770000000000032e+00 4.224820000000000242e+00 4.180419999999999803e+00 1.024250000000000105e+00 6.028810000000000002e+00 4.864989999999999704e+00 3.289849999999999941e+00 6.926129999999999676e+00 5.714959999999999596e+00 5.697869999999999990e+00 5.776989999999999625e+00 6.750359999999999694e+00 1.139520000000000088e+00 7.012590000000000323e+00 7.426470000000000127e+00 3.565599999999999881e+00 8.654669999999999419e+00 8.198909999999999698e+00 5.759070000000000356e+00 5.815750000000000419e+00 1.545390000000000041e+00 1.206849999999999978e+00 7.285809999999999675e+00 2.327230000000000132e+00 3.767990000000000173e+00 8.750479999999999592e+00 3.290830000000000144e+00 5.791629999999999612e+00 7.328750000000000320e+00 4.073210000000000441e+00 1.161589999999999900e+00 8.774559999999999249e+00 5.141820000000000057e+00 3.457320000000000171e+00 1.005406999999999940e+01 5.632340000000000124e+00 5.633589999999999876e+00 8.660410000000000608e+00 6.644519999999999982e+00 1.297560000000000047e+00 1.022306999999999988e+01 7.538560000000000372e+00 3.505980000000000096e+00 1.169397000000000020e+01 8.022850000000000037e+00 5.953909999999999592e+00 8.673859999999999459e+00 1.748250000000000082e+00 1.147059999999999969e+00 1.026837000000000089e+01 2.572210000000000107e+00 3.284650000000000070e+00 1.167126999999999981e+01 3.638999999999999790e+00 5.783330000000000304e+00 1.015717000000000070e+01 4.054610000000000269e+00 1.151829999999999909e+00 1.154747000000000057e+01 4.892389999999999795e+00 3.649010000000000087e+00 1.144516999999999918e+01 6.592520000000000380e+00 1.073990000000000000e+00 1.282756999999999969e+01 7.262360000000000149e+00 3.653859999999999886e+00 1.426576999999999984e+01 8.232480000000000686e+00 5.820999999999999730e+00
8.490019999999999456e+00 9.859750000000000014e+00 6.944259999999999877e+00 9.862090000000000245e+00 8.540299999999999558e-01 2.344279999999999919e+00 2.994810000000000194e+00 1.687100000000000044e+00 4.604809999999999626e+00 1.392400000000000082e+00 2.385650000000000048e+00 1.349999999999999985e-02 2.868590000000000195e+00 3.249220000000000219e+00 2.314130000000000020e+00 4.240529999999999688e+00 4.016189999999999927e+00 4.728620000000000267e+00 1.541459000000000046e+01 7.575400000000000134e+00 6.952670000000000350e+00 4.183010000000000339e+00 5.626299999999999635e+00 2.384580000000000144e+00 1.411839999999999939e+01 6.622449999999999726e+00 4.718880000000000408e+00 7.125280000000000058e+00 2.495200000000000085e+00 6.922340000000000160e+00 8.389760000000000773e+00 8.242720000000000269e+00 2.397870000000000168e+00 5.718510000000000204e+00 1.673089999999999966e+00 4.604750000000000121e+00 8.671329999999999316e+00 4.990009999999999835e+00 6.698990000000000222e+00 5.647870000000000168e+00 3.306459999999999955e+00 2.556270000000000042e+00 6.899810000000000443e+00 4.250650000000000261e+00 4.662889999999999979e+00 5.744320000000000093e+00 5.126439999999999664e+00 4.902999999999999720e-02 6.972419999999999618e+00 5.768099999999999561e+00 2.414419999999999789e+00 8.598390000000000200e+00 6.571310000000000429e+00 4.635250000000000092e+00 1.406534000000000084e+01 9.820539999999999381e+00 6.917900000000000382e+00 7.024250000000000327e+00 1.115650000000000031e+00 2.159850000000000048e+00 8.522180000000000533e+00 1.779779999999999918e+00 4.481569999999999609e+00 1.144708999999999932e+01 5.039250000000000007e+00 6.835329999999999906e+00 8.349759999999999849e+00 3.459870000000000001e+00 2.313779999999999948e+00 1.009648999999999930e+01 4.162010000000000431e+00 4.773299999999999876e+00 1.273789000000000016e+01 7.469839999999999591e+00 6.930500000000000327e+00 9.770889999999999631e+00 6.021279999999999966e+00 2.206220000000000070e+00 1.131779000000000046e+01 6.600690000000000168e+00 4.555869999999999642e+00 2.774160000000000181e+00 1.508350000000000080e+00 1.279819999999999958e+00 4.223959999999999937e+00 2.584989999999999899e+00 3.481050000000000200e+00 5.756090000000000373e+00 3.136919999999999931e+00 5.808880000000000265e+00 4.236010000000000275e+00 4.108810000000000073e+00 1.039849999999999941e+00 5.530920000000000059e+00 4.866629999999999789e+00 3.682189999999999852e+00 7.124559999999999782e+00 5.738339999999999996e+00 5.814580000000000304e+00 5.680069999999999730e+00 6.602400000000000269e+00 1.222820000000000018e+00 7.037939999999999863e+00 7.409110000000000085e+00 3.595410000000000217e+00 8.499980000000000757e+00 8.221799999999999997e+00 5.983399999999999608e+00 5.450479999999999769e+00 1.869750000000000023e+00 1.253109999999999946e+00 7.041489999999999583e+00 2.464339999999999975e+00 3.399179999999999868e+00 8.434020000000000294e+00 3.272609999999999797e+00 5.783249999999999780e+00 6.936759999999999593e+00 4.263880000000000337e+00 1.158300000000000107e+00 8.424780000000000157e+00 4.924929999999999808e+00 3.417359999999999953e+00 1.013409000000000049e+01 5.818480000000000096e+00 5.679840000000000444e+00 8.383089999999999264e+00 6.608329999999999593e+00 1.086969999999999992e+00 9.793139999999999290e+00 7.459060000000000024e+00 3.373689999999999856e+00 1.151679000000000030e+01 8.134610000000000340e+00 5.754470000000000418e+00 8.494429999999999481e+00 1.690339999999999954e+00 1.043600000000000083e+00 9.827099999999999724e+00 2.543890000000000207e+00 3.431259999999999977e+00 1.138388999999999918e+01 3.209119999999999973e+00 5.726960000000000051e+00 9.683719999999999217e+00 3.950590000000000046e+00 1.033719999999999972e+00 1.143088999999999977e+01 4.786870000000000402e+00 3.622240000000000126e+00 1.109868999999999950e+01 6.735549999999999926e+00 1.062980000000000036e+00 1.278598999999999997e+01 7.275120000000000253e+00 3.515470000000000095e+00 1.414068999999999932e+01 8.200789999999999580e+00 5.956640000000000157e+00
8.344369999999999621e+00 8.068000000000000171e-02 1.443999999999999971e-02 5.528039999999999843e+00 8.249980000000000757e+00 2.228169999999999984e+00 1.521143000000000001e+01 9.068989999999999441e+00 4.632259999999999600e+00 1.433410000000000073e+00 2.412119999999999820e+00 8.149999999999999259e-03 2.804240000000000066e+00 3.314509999999999845e+00 2.199910000000000032e+00 4.111469999999999736e+00 3.972189999999999888e+00 4.536920000000000286e+00 2.771110000000000184e+00 4.889739999999999753e+00 2.476000000000000076e-02 4.094739999999999824e+00 5.683099999999999596e+00 2.314389999999999947e+00 5.490479999999999805e+00 6.595509999999999984e+00 4.538439999999999586e+00 6.875210000000000043e+00 7.298610000000000042e+00 3.200000000000000262e-04 4.188460000000000072e+00 1.002559999999999896e+00 2.277569999999999872e+00 9.844310000000000116e+00 9.091100000000000847e+00 4.625490000000000101e+00 8.389490000000000336e+00 5.009839999999999627e+00 6.865490000000000315e+00 5.590160000000000018e+00 3.280100000000000016e+00 2.317559999999999842e+00 6.954589999999999606e+00 4.217970000000000219e+00 4.690450000000000230e+00 9.669040000000000745e+00 7.538520000000000110e+00 6.862650000000000361e+00 6.790530000000000399e+00 5.725839999999999819e+00 2.246970000000000134e+00 8.284710000000000463e+00 6.653909999999999769e+00 4.489810000000000301e+00 9.824020000000000863e+00 7.446229999999999905e+00 6.780999999999999528e-02 7.030850000000000044e+00 8.573800000000000310e-01 2.183640000000000025e+00 1.264033000000000051e+01 9.186640000000000583e+00 4.700650000000000439e+00 6.866990000000000371e+00 2.568130000000000024e+00 2.023800000000000043e-01 8.489760000000000417e+00 3.285250000000000004e+00 2.268289999999999917e+00 9.766730000000000800e+00 4.148259999999999614e+00 4.536069999999999602e+00 8.419900000000000162e+00 4.888510000000000133e+00 9.747999999999999721e-02 9.610599999999999810e+00 5.778369999999999784e+00 2.344650000000000123e+00 1.113592000000000048e+01 6.755510000000000126e+00 4.443279999999999674e+00 2.742049999999999876e+00 1.606149999999999967e+00 1.043250000000000011e+00 4.225660000000000416e+00 2.544740000000000002e+00 3.284699999999999953e+00 5.365179999999999616e+00 3.447049999999999947e+00 5.804630000000000400e+00 4.218729999999999869e+00 4.120079999999999742e+00 1.071830000000000060e+00 5.364659999999999762e+00 4.921949999999999825e+00 3.456329999999999902e+00 6.879159999999999719e+00 5.806370000000000253e+00 5.783109999999999751e+00 5.432059999999999889e+00 6.695999999999999730e+00 1.111250000000000071e+00 6.771939999999999849e+00 7.578389999999999738e+00 3.438359999999999861e+00 8.379089999999999705e+00 8.398189999999999600e+00 5.657540000000000013e+00 5.732910000000000394e+00 1.764010000000000078e+00 1.184160000000000101e+00 7.141849999999999810e+00 2.643619999999999859e+00 3.596729999999999983e+00 8.466570000000000817e+00 3.336009999999999920e+00 6.042399999999999771e+00 7.010849999999999582e+00 4.090019999999999989e+00 1.258839999999999959e+00 8.329620000000000246e+00 5.073750000000000426e+00 3.517009999999999970e+00 9.826269999999999172e+00 5.878969999999999807e+00 5.686919999999999753e+00 8.253790000000000404e+00 6.500569999999999737e+00 1.168239999999999945e+00 9.811080000000000467e+00 7.680579999999999963e+00 3.418899999999999828e+00 1.116802000000000028e+01 8.151899999999999480e+00 5.804199999999999804e+00 8.340889999999999915e+00 1.712020000000000097e+00 1.209689999999999932e+00 9.929629999999999512e+00 2.493360000000000021e+00 3.475080000000000169e+00 1.106952000000000069e+01 3.538330000000000197e+00 5.685139999999999638e+00 9.841310000000000002e+00 4.164609999999999701e+00 1.174220000000000041e+00 1.109262000000000015e+01 4.994410000000000238e+00 3.417260000000000186e+00 1.120481999999999978e+01 6.602509999999999657e+00 1.035719999999999974e+00 1.263871999999999929e+01 7.403719999999999857e+00 3.459600000000000009e+00 1.397461999999999982e+01 8.274620000000000530e+00 5.837290000000000312e+00
1.274943999999999988e+01 2.743230000000000057e+00 6.982809999999999739e+00 1.405427000000000071e+01 8.442500000000000782e+00 2.282849999999999824e+00 7.259070000000000356e+00 9.371249999999999858e+00 4.730509999999999771e+00 1.467090000000000005e+00 2.415430000000000188e+00 3.654999999999999916e-02 2.917489999999999917e+00 3.560329999999999995e+00 2.304990000000000094e+00 1.283407000000000053e+01 4.430320000000000036e+00 4.810019999999999740e+00 2.885790000000000077e+00 5.067840000000000344e+00 3.765000000000000291e-02 1.263137000000000043e+01 5.878890000000000171e+00 2.363269999999999982e+00 5.884039999999999715e+00 7.048370000000000246e+00 4.767070000000000363e+00 7.169410000000000061e+00 7.600530000000000008e+00 1.316199999999999870e-01 4.234549999999999592e+00 9.853100000000000191e-01 2.358699999999999797e+00 5.683080000000000354e+00 1.853220000000000089e+00 4.665199999999999569e+00 4.331990000000000229e+00 2.556150000000000144e+00 8.576000000000000290e-02 5.735260000000000247e+00 3.661509999999999820e+00 2.352930000000000188e+00 7.018270000000000231e+00 4.205379999999999896e+00 4.712460000000000093e+00 5.782910000000000217e+00 5.148019999999999818e+00 3.921999999999999792e-02 7.069099999999999717e+00 5.960539999999999949e+00 2.413860000000000117e+00 8.580510000000000304e+00 6.886700000000000266e+00 4.758339999999999570e+00 1.422700000000000031e+01 1.021958000000000055e+01 6.980920000000000236e+00 7.051110000000000433e+00 9.584000000000000297e-01 2.309649999999999981e+00 8.577139999999999986e+00 1.857790000000000052e+00 4.519219999999999793e+00 7.236209999999999809e+00 2.577949999999999964e+00 1.944200000000000095e-01 8.604300000000000281e+00 3.609640000000000182e+00 2.574370000000000047e+00 9.876390000000000668e+00 4.498389999999999667e+00 4.789270000000000138e+00 1.278712999999999944e+01 7.981139999999999901e+00 6.981840000000000046e+00 9.972269999999999968e+00 6.064569999999999794e+00 2.371750000000000025e+00 1.124117000000000033e+01 7.002570000000000405e+00 4.615910000000000402e+00 2.804959999999999898e+00 1.725449999999999928e+00 1.140090000000000048e+00 4.390189999999999593e+00 2.592880000000000074e+00 3.343240000000000212e+00 5.613279999999999603e+00 3.669350000000000112e+00 5.872880000000000322e+00 4.300099999999999589e+00 4.299730000000000274e+00 1.118710000000000093e+00 5.718860000000000277e+00 5.073170000000000179e+00 3.578349999999999920e+00 7.051169999999999938e+00 6.044730000000000381e+00 6.024589999999999890e+00 5.642479999999999940e+00 6.762290000000000134e+00 1.119779999999999998e+00 7.215410000000000323e+00 7.597199999999999953e+00 3.472760000000000069e+00 8.628719999999999501e+00 8.644600000000000506e+00 5.671350000000000335e+00 5.713079999999999714e+00 1.697289999999999965e+00 1.168609999999999927e+00 7.049319999999999808e+00 2.461129999999999818e+00 3.526679999999999815e+00 8.656779999999999475e+00 3.645709999999999784e+00 5.942669999999999675e+00 7.170709999999999695e+00 4.196500000000000341e+00 1.081499999999999906e+00 8.709759999999999280e+00 5.282869999999999955e+00 3.652200000000000113e+00 1.011397000000000013e+01 6.105690000000000062e+00 5.777490000000000236e+00 8.365610000000000213e+00 6.704119999999999635e+00 1.238450000000000051e+00 9.994369999999999976e+00 7.704130000000000145e+00 3.430919999999999970e+00 1.137927000000000000e+01 8.513070000000000803e+00 5.776419999999999888e+00 8.428580000000000183e+00 1.522669999999999968e+00 1.096100000000000074e+00 1.012917000000000023e+01 2.876949999999999896e+00 3.448719999999999786e+00 1.138416999999999923e+01 3.474130000000000162e+00 5.730529999999999902e+00 9.895759999999999224e+00 4.001900000000000013e+00 9.981900000000000217e-01 1.145817000000000085e+01 5.314820000000000100e+00 3.638850000000000140e+00 1.129507000000000083e+01 6.689420000000000144e+00 1.181789999999999896e+00 1.286377000000000059e+01 7.550970000000000404e+00 3.654520000000000213e+00 1.415996999999999950e+01 8.551840000000000330e+00 5.764499999999999957e+00