-5.080270000000000064e-01 -3.996199999999999752e-02 6.970709999999999962e-01 -1.846679999999999988e-01 1.414255000000000040e+00 1.137283999999999962e+00 8.782039999999999846e-01 1.093097999999999903e+00 6.580190000000000206e-01 -2.503400000000000070e-01 9.235959999999999726e-01 -1.897278000000000020e+00 -2.617494999999999905e+00 7.017889999999999961e-01 8.825769999999999449e-01 1.537679000000000018e+00 -1.307533000000000056e+00 -4.794769999999999865e-01 8.457580000000000098e-01 -2.507399999999999907e-02 2.616620999999999864e+00 1.220917000000000030e+00 1.412423999999999902e+00 -2.825604999999999922e+00 2.854000000000000200e-03 -1.360181000000000084e+00 -3.074193999999999871e+00 -9.526459999999999928e-01 -2.371979999999999922e-01 1.140717999999999899e+00 2.074678000000000022e+00 1.164387000000000061e+00 1.035625999999999935e+00 -6.555919999999999526e-01 7.586910000000000043e-01 -7.196850000000000191e-01 -1.941891000000000034e+00 -3.043250000000000122e-01 8.855610000000000426e-01 2.039010999999999907e+00 -1.210793999999999926e+00 1.416843000000000075e+00 1.562929999999999875e-01 7.513469999999999871e-01 -7.733029999999999626e-01 5.092200000000000198e-02 4.590170000000000083e-01 -1.934201999999999977e+00 2.391429999999999945e-01 -2.754420000000000202e-01 -1.408679999999999932e-01 -1.012694999999999901e+00 3.117980000000000196e-01 1.104281999999999986e+00 -5.895380000000000065e-01 2.349568000000000101e+00 -7.922899999999999388e-02 -1.615482000000000085e+00 -8.643279999999999852e-01 -2.302500000000000033e-02 2.723030000000000173e-01 1.789600000000000080e-01 8.827920000000000211e-01 1.357971999999999957e+00 -1.496081999999999912e+00 5.493270000000000097e-01 -2.418690000000000007e-01 -5.296779999999999822e-01 4.594849999999999768e-01 1.948000000000000079e-03 -8.627000000000000224e-01 1.231720000000000037e-01 -1.577457000000000109e+00 -9.908439999999999470e-01 1.945081999999999978e+00 1.614000000000000101e+00 8.580069999999999641e-01 -8.390109999999999513e-01 3.473470000000000169e-01 1.410465999999999998e+00 -7.417869999999999742e-01 1.840999999999999972e-03 -1.163388000000000089e+00 -1.063336999999999977e+00 -4.115829999999999766e-01 -2.281779999999999919e-01 4.017229999999999968e-01 1.268013000000000057e+00 2.229495000000000005e+00 -1.337390999999999996e+00 5.915499999999999925e-02 -4.603600000000000053e-02 -1.741790000000000005e-01 -6.622379999999999933e-01 1.425091000000000108e+00 -6.367859999999999632e-01 -1.637679999999999969e-01 -1.380743999999999971e+00 -1.711599999999999927e-02 -1.869290000000000118e-01 -1.027449000000000057e+00 -1.445100000000000030e-02 2.083609999999999907e-01 1.275935999999999959e+00 2.666290000000000049e-01 2.177610000000000101e-01 -1.584086000000000105e+00 1.199438999999999922e+00 -1.826003000000000043e+00 2.887410000000000254e-01 -1.967250000000000110e-01 -2.225149999999999906e-01 -9.842940000000000023e-01 -4.982889999999999819e-01 2.184140000000000192e+00 9.078070000000000306e-01 1.125423000000000062e+00 2.237560000000000104e-01 -1.500377999999999989e+00 -7.283500000000000529e-01 1.199839999999999934e-01 -1.460940000000000016e-01 1.329857999999999985e+00 -1.305520000000000014e+00 -1.003984999999999905e+00 5.016299999999999926e-02 -3.524300000000000210e-01 1.310688999999999993e+00 8.028610000000000468e-01 -7.383450000000000291e-01 -7.347219999999999862e-01 -1.057174999999999976e+00 -5.637659999999999894e-01 3.013850000000000140e-01 -9.448410000000000419e-01 1.050119999999999942e-01 1.318240000000000078e+00 -1.338664000000000076e+00 9.650840000000000529e-01 -1.974523000000000028e+00 1.942744000000000026e+00 -1.905140999999999973e+00 3.943000000000000324e-03 7.559069999999999956e-01 -4.193680000000000185e-01 1.483389999999999986e-01 -2.858185000000000198e+00 -5.718469999999999942e-01 4.307610000000000050e-01 1.488561999999999941e+00 1.729813999999999963e+00 -1.916458999999999913e+00 1.528615999999999975e+00 -3.119020000000000126e-01 -7.840749999999999664e-01 -6.353720000000000478e-01 2.067105000000000192e+00 5.507180000000000408e-01 -1.397858000000000045e+00
-1.027236999999999956e+00 -1.769870000000000054e-01 6.485469999999999846e-01 -2.965619999999999923e-01 2.455068999999999946e+00 -1.450779000000000041e+00 -4.634900000000000131e-01 2.163686000000000220e+00 3.237369999999999970e-01 -2.801264000000000198e+00 -6.115180000000000060e-01 3.099848999999999855e+00 -2.330829000000000040e+00 -1.332467999999999986e+00 7.073089999999999655e-01 1.027781000000000056e+00 1.685983000000000009e+00 2.627263000000000126e+00 8.873560000000000336e-01 -1.804694000000000020e+00 -8.288820000000000077e-01 5.885070000000000023e-01 -2.179616999999999916e+00 -1.144824000000000064e+00 2.037152999999999992e+00 1.170780000000000015e-01 -7.411360000000000170e-01 1.047466000000000008e+00 -1.972540000000000127e-01 -1.067899999999999926e-02 1.821741000000000055e+00 -2.119769999999999932e+00 3.800830000000000042e-01 -7.656269999999999465e-01 -1.238018000000000063e+00 -7.477319999999999522e-01 2.213327000000000044e+00 -3.946919999999999873e-01 -2.245001999999999942e+00 -1.199284000000000017e+00 1.304919999999999969e-01 -1.855984000000000078e+00 2.039931999999999856e+00 1.928037000000000001e+00 1.278540000000000010e+00 -1.754793000000000047e+00 -1.709788000000000086e+00 8.300969999999999738e-01 -1.547244999999999981e+00 -2.848049999999999748e-01 -1.508116000000000012e+00 -2.805500000000000216e-01 -2.069229999999999958e-01 -9.381899999999999684e-01 -1.162347999999999937e+00 -8.758759999999999879e-01 -1.783821000000000101e+00 5.273750000000000382e-01 -1.378638000000000030e+00 1.016302999999999956e+00 -1.039342999999999906e+00 3.273946000000000023e+00 -1.083250000000000046e-01 -1.605507000000000017e+00 8.461480000000000112e-01 -4.470859999999999834e-01 8.524329999999999963e-01 -8.167140000000000510e-01 -4.415450000000000208e-01 -9.861929999999999863e-01 1.890989999999999893e-01 3.739700000000000246e-01 1.619088000000000083e+00 -3.307964999999999822e+00 4.032906999999999798e+00 -4.764249999999999874e-01 2.011188000000000198e+00 2.313343999999999845e+00 -7.172520000000000007e-01 -4.802164000000000321e+00 -3.207342999999999833e+00 -1.807050000000000045e+00 1.182736999999999927e+00 3.144770000000000065e-01 5.328680000000000083e-01 3.282700000000000062e-01 -1.263301999999999925e+00 1.731031999999999904e+00 -1.030218999999999996e+00 -1.289590999999999932e+00 2.398782000000000192e+00 1.605574000000000057e+00 -3.404260000000000064e-01 1.517325000000000035e+00 -1.280500999999999889e+00 -1.469422000000000006e+00 5.797470000000000123e-01 1.428714000000000039e+00 -1.492555999999999994e+00 -8.866760000000000197e-01 -1.999799999999999842e-02 -2.313169999999999948e-01 7.195099999999999829e-01 -3.699009999999999798e-01 7.828530000000000211e-01 9.019169999999999687e-01 -1.526907999999999932e+00 1.956585000000000019e+00 -1.690080999999999944e+00 1.919273999999999925e+00 2.884140000000000037e-01 4.946769999999999778e-01 9.852469999999999839e-01 3.116999999999999771e-01 -1.560268999999999906e+00 -1.395550000000000068e+00 8.807350000000000456e-01 5.494210000000000482e-01 1.784254999999999924e+00 2.305766000000000204e+00 -2.127088999999999785e+00 4.211199999999999666e-02 -1.759263000000000021e+00 -5.857620000000000049e-01 1.103577999999999948e+00 -7.764090000000000158e-01 -4.300430000000000086e-01 8.292030000000000234e-01 8.505669999999999620e-01 -1.116586000000000078e+00 6.920530000000000292e-01 8.157750000000000279e-01 -1.875488999999999962e+00 4.028303000000000189e+00 -1.293398999999999965e+00 -2.691200000000000259e-01 -1.727290999999999910e+00 1.137494000000000005e+00 -8.552560000000000162e-01 -1.220304000000000055e+00 -9.417029999999999568e-01 2.302503000000000188e+00 1.323974999999999902e+00 -1.721620000000000095e-01 -7.941580000000000306e-01 8.213240000000000540e-01 5.213680000000000536e-01 1.631340000000000012e+00 1.484739999999999949e-01 -8.710670000000000357e-01 1.992617000000000083e+00 -5.512559999999999683e-01 1.188695000000000057e+00 -2.333069999999999866e-01 -3.782050000000000134e-01 1.380599999999999883e-01 2.670935000000000059e+00 -8.579399999999999527e-02 2.356250000000000011e-01
-8.360659999999999759e-01 9.373029999999999973e-01 -1.608444999999999903e+00 3.196970000000000089e-01 -2.559020000000000183e-01 1.816416000000000031e+00 -7.060819999999999874e-01 -1.423956999999999917e+00 -1.271174999999999944e+00 -7.400600000000000234e-02 3.617461000000000038e+00 -6.812939999999999552e-01 1.347822999999999993e+00 1.473883999999999972e+00 1.075398999999999994e+00 2.535589999999999788e-01 1.500700000000000089e-01 -1.322470000000000034e-01 -4.254879999999999773e-01 8.705200000000000438e-02 -1.259859999999999869e-01 -2.579499999999999849e-02 -8.671429999999999971e-01 -5.105779999999999763e-01 2.893127999999999922e+00 -1.263235000000000108e+00 1.002545000000000019e+00 -3.344449999999999923e-01 7.056789999999999452e-01 -8.993689999999999740e-01 -4.161909999999999776e-01 -1.789703000000000044e+00 1.293150000000000133e-01 2.781589999999999896e-01 -2.152090000000000114e-01 3.950199999999999823e-01 -9.288549999999999862e-01 -1.739921999999999969e+00 9.907099999999999795e-01 -6.399240000000000483e-01 2.776262000000000008e+00 2.542460000000000275e-01 2.120670000000000055e-01 9.169399999999999773e-02 -1.420287000000000077e+00 -3.821728999999999932e+00 -2.370480999999999838e+00 2.446851000000000109e+00 1.777889999999999970e+00 2.472056999999999949e+00 -2.523442000000000185e+00 7.860420000000000185e-01 1.368116000000000110e+00 -1.866117999999999943e+00 -1.540221999999999980e+00 2.269789999999999974e+00 -2.092512000000000150e+00 4.207839999999999914e-01 -1.759932999999999970e+00 -6.229350000000000165e-01 -7.184500000000000608e-02 -5.511399999999999633e-01 4.881240000000000023e-01 -2.298153999999999808e+00 7.828399999999999803e-01 -8.367609999999999770e-01 2.542510000000000048e-01 1.349858000000000002e+00 -2.371751999999999860e+00 1.798993999999999982e+00 -1.379640000000000033e-01 2.089045000000000041e+00 1.337151999999999896e+00 -2.156403000000000070e+00 1.785063999999999984e+00 6.350360000000000449e-01 -1.493829000000000073e+00 2.106439999999999979e-01 -1.988973000000000102e+00 1.309423000000000004e+00 -3.566630000000000078e-01 2.243314999999999948e+00 -2.168343999999999827e+00 1.782310000000000061e+00 -9.728949999999999543e-01 2.116099999999999925e-02 1.031138000000000110e+00 8.710729999999999862e-01 -1.122705000000000064e+00 1.488780000000000103e-01 -3.310373999999999928e+00 -3.056899999999999895e-02 -8.686800000000000077e-01 -2.869493999999999989e+00 7.925000000000000100e-02 2.271287000000000056e+00 -1.774100000000000121e-01 -1.689016999999999991e+00 -4.387000000000000274e-03 -1.611887000000000070e+00 2.343929999999999902e-01 -2.158509000000000011e+00 2.642021000000000175e+00 1.243611999999999940e+00 3.104410000000000225e-01 -9.268999999999999462e-03 -7.643500000000000294e-02 -9.138690000000000424e-01 3.214230000000000143e-01 -4.827949999999999742e-01 4.586799999999999766e-01 6.659030000000000227e-01 -2.783142999999999923e+00 1.498208999999999902e+00 -1.396131000000000011e+00 3.770259999999999723e-01 1.650778999999999996e+00 3.102392000000000039e+00 -1.373356999999999939e+00 2.511959999999999749e-01 1.461362999999999968e+00 2.893009999999999748e-01 8.769430000000000280e-01 4.888310000000000155e-01 -1.367200000000000013e-02 -1.751954999999999929e+00 2.745379999999999932e+00 2.084200000000000053e+00 1.420033000000000101e+00 -5.322470000000000256e-01 1.283340000000000036e-01 5.829550000000000010e-01 2.197007000000000154e+00 2.136096000000000217e+00 -4.243000000000000327e+00 9.907489999999999908e-01 -7.689139999999999864e-01 2.059811999999999976e+00 -4.964350000000000152e-01 3.898340000000000138e-01 -1.468150000000000066e+00 -6.140860000000000207e-01 1.329188000000000036e+00 5.549610000000000376e-01 -1.297733000000000025e+00 -4.938989999999999769e-01 8.510550000000000059e-01 -9.309100000000000152e-01 -9.983670000000000044e-01 5.691249999999999920e-01 7.676279999999999770e-01 -7.715739999999999821e-01 2.643159999999999954e-01 -2.364259000000000110e+00 8.176139999999999519e-01 -1.909799000000000024e+00 -1.207629999999999953e-01 2.761149999999999993e-01 1.372416000000000080e+00
3.223630000000000106e-01 1.738793000000000033e+00 -7.175249999999999684e-01 1.687062999999999979e+00 -1.117841000000000085e+00 -1.257468999999999948e+00 -5.048179999999999890e-01 5.198690000000000255e-01 1.530819999999999959e-01 -1.688910000000000133e-01 6.666819999999999968e-01 1.279133000000000076e+00 4.991920000000000357e+00 1.849787999999999988e+00 -3.262294999999999945e+00 3.236890000000000045e-01 -5.287300000000000333e-01 -2.312917000000000112e+00 3.499894999999999978e+00 -5.681030000000000246e-01 -7.883569999999999744e-01 -1.143949999999999967e-01 -1.046794999999999920e+00 -4.985299999999999732e-01 1.169241999999999893e+00 -4.880550000000000166e-01 1.571720000000000061e-01 4.415310000000000068e-01 -2.234408000000000172e+00 -1.031903999999999932e+00 -9.936669999999999670e-01 -5.310979999999999590e-01 -1.695194000000000090e+00 7.160440000000000138e-01 1.046292000000000000e+00 2.002689000000000163e+00 -5.868090000000000250e-01 1.072513999999999967e+00 -1.033951000000000064e+00 9.239180000000000170e-01 4.123580000000000023e-01 1.861119999999999997e-01 1.458169000000000048e+00 -1.244579000000000102e+00 1.104038000000000075e+00 -4.764820000000000166e-01 -1.136138000000000092e+00 -1.564808999999999894e+00 -1.381180000000000074e+00 -9.492899999999999949e-02 8.667199999999999904e-02 5.494620000000000060e-01 -7.208399999999999530e-02 2.060334000000000110e+00 -6.236439999999999761e-01 -1.627412999999999998e+00 2.894539999999999891e-01 -1.781684999999999963e+00 -2.754440000000000222e-01 -1.205599000000000087e+00 -4.385902999999999885e+00 1.575275999999999899e+00 -4.335499999999999909e-01 9.699099999999999389e-02 1.619420000000000026e-01 1.402479000000000031e+00 1.051269999999999927e+00 1.649358000000000102e+00 1.616281999999999996e+00 -3.405929999999999791e-01 -4.675059999999999771e-01 5.294830000000000370e-01 -3.484932999999999836e+00 1.245562000000000058e+00 3.586829999999999741e-01 1.787452000000000041e+00 8.609999999999999876e-01 -1.383485000000000076e+00 -3.683980000000000032e-01 1.532119000000000009e+00 -1.601380000000000026e-01 2.847109999999999919e-01 1.451086000000000098e+00 9.410239999999999716e-01 -2.110039999999999971e-01 -1.476629999999999887e-01 5.803549999999999542e-01 2.541922000000000015e+00 -6.129050000000000331e-01 5.660899999999999821e-01 1.607286999999999910e+00 -3.674780000000000268e-01 1.334600999999999926e+00 -3.460245000000000015e+00 7.016890000000000072e-01 6.612860000000000404e-01 5.710650000000000448e-01 1.050600000000000006e-01 1.588529999999999942e-01 -5.793160000000000531e-01 -7.996159999999999934e-01 4.815590000000000148e-01 1.867353999999999958e+00 1.021546999999999983e+00 -9.425320000000000364e-01 -7.371500000000000274e-02 6.684360000000000301e-01 -3.763509999999999911e-01 7.801800000000000401e-02 2.415163999999999866e+00 1.648139999999999883e-01 9.902079999999999771e-01 1.046313000000000049e+00 -2.187837000000000032e+00 -4.232130000000000059e-01 -4.421180000000000110e-01 3.716720000000000024e-01 -8.883389999999999898e-01 -1.151090000000000030e-01 -1.096505999999999981e+00 -1.983438999999999952e+00 -2.236574000000000062e+00 7.358699999999999963e-02 -1.126709999999999934e-01 2.244645999999999919e+00 3.127381999999999884e+00 3.897820000000000173e-01 2.383720000000000006e-01 -1.045107999999999926e+00 -1.563846999999999987e+00 -1.251600000000000046e+00 -3.504889999999999950e-01 -9.750710000000000210e-01 2.561470000000000136e-01 5.644740000000000313e-01 -5.295760000000000467e-01 -1.447065999999999963e+00 -2.035700000000000010e-02 -4.917615999999999765e+00 -3.786923999999999957e+00 4.605652000000000079e+00 -1.852192999999999978e+00 -3.935766000000000098e+00 1.433095000000000008e+00 -2.412164999999999893e+00 4.140599999999999836e-01 -6.054920000000000302e-01 1.658179999999999987e+00 1.744061000000000083e+00 -2.723282999999999898e+00 9.423300000000000010e-01 4.355740000000000167e-01 1.090475000000000083e+00 1.797201000000000048e+00 1.575350000000000084e-01 -1.317553999999999892e+00 3.446740999999999833e+00 -6.552999999999999936e-01 6.307000000000000384e-01
-7.764240000000000030e-01 1.550660000000000094e-01 1.330014000000000030e+00 3.956300000000000094e-02 -8.640710000000000335e-01 -1.073699999999999932e-01 -1.998483000000000009e+00 -1.500526000000000026e+00 7.228029999999999733e-01 2.337266000000000066e+00 2.437900000000000136e-02 1.279433000000000042e+00 -1.385223000000000093e+00 4.631730000000000014e-01 -1.007541999999999938e+00 4.510759999999999770e-01 -1.962319999999999898e-01 -8.140969999999999596e-01 4.513728000000000407e+00 -3.600039000000000211e+00 1.792377000000000109e+00 3.934460000000000179e-01 1.358886000000000038e+00 -6.573750000000000426e-01 1.401329999999999965e+00 8.259119999999999795e-01 -1.044211999999999918e+00 8.657120000000000370e-01 -1.489149999999999918e-01 1.245757999999999921e+00 -9.711539999999999617e-01 1.235363999999999907e+00 -2.369032999999999944e+00 4.662419999999999898e-01 -1.229549999999999921e+00 4.705039999999999778e-01 -1.077709999999999946e+00 7.632700000000000040e-01 4.171254000000000239e+00 -1.093121999999999927e+00 1.042826000000000031e+00 -4.740027000000000434e+00 4.246637999999999913e+00 -2.384294000000000135e+00 8.281500000000000528e-01 -2.161779000000000117e+00 -2.410893000000000175e+00 -6.324600000000000222e-01 2.843979999999999841e-01 1.133812000000000042e+00 -9.748970000000000136e-01 -1.582997999999999905e+00 5.061120000000000063e-01 5.513839999999999852e-01 -6.614929999999999977e-01 2.650396000000000196e+00 -1.352073000000000080e+00 -1.307230000000000059e-01 -3.224204999999999988e+00 -6.220360000000000333e-01 -7.772499999999999964e-01 -1.056810999999999945e+00 2.057643000000000111e+00 -1.176476000000000077e+00 -2.710710000000000064e-01 2.274878999999999873e+00 1.965451000000000059e+00 -1.359148999999999941e+00 -3.335429999999999784e-01 -2.979998000000000147e+00 -1.482520000000000060e+00 -3.460615000000000219e+00 -8.924940000000000095e-01 4.561259999999999759e-01 1.874800999999999940e+00 4.730829999999999758e-01 -2.946480000000000210e+00 1.267103000000000090e+00 2.094679999999999875e-01 1.831766999999999923e+00 -1.364778000000000047e+00 -4.586569999999999814e-01 1.555412000000000017e+00 -5.561709999999999710e-01 -5.170299999999999896e-02 -2.730621999999999883e+00 1.184695999999999971e+00 -1.827110000000000012e+00 2.313517000000000046e+00 -3.490199999999999969e-01 -1.616328999999999905e+00 1.417089000000000043e+00 1.825409999999999977e+00 -1.608499999999999930e-01 2.387974999999999959e+00 -6.016960000000000086e-01 -2.027808999999999973e+00 4.854640000000000066e-01 -5.837430000000000119e-01 -1.820316999999999963e+00 1.893469999999999875e-01 5.425079999999999902e-01 2.571180000000000132e-01 3.273090000000000166e-01 1.943570000000000020e-01 9.391099999999999448e-02 7.470210000000000461e-01 -3.038175999999999988e+00 2.125420999999999783e+00 -2.186739000000000210e+00 -9.000000000000000222e-01 7.901010000000000533e-01 1.222509999999999986e-01 1.551131999999999955e+00 1.863002000000000047e+00 7.247069999999999901e-01 -6.730180000000000051e-01 2.202382000000000062e+00 -1.449397000000000046e+00 1.998230000000000006e-01 3.561699999999999866e-01 2.384269000000000194e+00 9.997829999999999773e-01 -9.360770000000000479e-01 -6.759600000000000053e-01 6.198460000000000081e-01 5.319930000000000492e-01 -5.236000000000000203e-03 1.038445999999999980e+00 1.041026999999999925e+00 3.666780000000000039e-01 1.578008999999999995e+00 -1.861509999999999998e+00 3.823869999999999769e-01 -1.432091000000000003e+00 -1.208372000000000002e+00 -5.749069999999999458e-01 -5.032280000000000086e-01 1.454429999999999890e+00 -4.895320000000000227e-01 3.458919999999999773e-01 2.715670000000000028e-01 8.836289999999999978e-01 1.630681000000000047e+00 1.319517999999999969e+00 2.013027000000000122e+00 -6.009870000000000489e-01 -3.686360000000000192e-01 2.452898999999999941e+00 -1.295746000000000064e+00 1.802778999999999909e+00 -6.438099999999999934e-01 2.056918000000000024e+00 -5.166490000000000249e-01 3.173679999999999835e-01 3.236069999999999780e-01 -1.237470000000000070e+00 -8.647900000000000031e-02 -3.943277000000000143e+00
2.730090000000000017e-01 -1.391467000000000009e+00 -8.899139999999999828e-01 -4.288040000000000185e-01 6.532900000000000373e-01 9.096959999999999491e-01 2.305356000000000183e+00 5.500399999999999734e-01 1.077999999999999965e-03 -6.990100000000000480e-02 3.473720000000000141e-01 8.192070000000000185e-01 -4.841500000000000248e-01 -1.613449999999999884e-01 1.243754999999999944e+00 -8.367850000000000010e-01 5.860610000000000541e-01 -7.227059999999999595e-01 3.380090000000000039e-01 1.520481999999999889e+00 -8.125710000000000433e-01 -4.615000000000000213e-01 1.874020000000000019e+00 -1.569039999999999990e+00 1.347094000000000014e+00 5.307899999999999840e-01 3.642299999999999982e-01 1.790933000000000108e+00 2.157389999999999919e+00 3.918309999999999849e-01 -3.461310000000000220e-01 -2.616220000000000212e+00 -3.311060000000000114e-01 -1.086014999999999953e+00 1.619137999999999966e+00 -2.942230000000000123e-01 -3.073299999999999921e-01 1.779499999999999832e-02 1.463530000000000109e-01 8.597890000000000255e-01 1.660176000000000096e+00 3.689040000000000097e-01 1.401360000000000106e-01 -9.506409999999999583e-01 -1.076178000000000079e+00 -2.028010000000000090e-01 -9.049770000000000314e-01 -6.815899999999999737e-02 1.307938000000000045e+00 8.859939999999999483e-01 9.211709999999999621e-01 3.326879999999999837e-01 1.332511999999999919e+00 1.518208000000000002e+00 -7.936640000000000361e-01 9.882900000000000018e-02 -4.507720000000000060e-01 5.278299999999999659e-02 -1.259903999999999913e+00 2.619365000000000165e+00 -9.769579999999999931e-01 -3.905970000000000275e-01 -6.972460000000000324e-01 2.177829000000000015e+00 -1.603330000000000033e-01 -4.771931999999999618e+00 -1.133815999999999935e+00 2.640819999999999834e-01 2.136085000000000012e+00 -2.554839999999999889e-01 9.479100000000000303e-01 1.038763000000000103e+00 -5.234910000000000396e-01 1.789130000000000109e+00 -5.000919999999999810e-01 1.843113000000000001e+00 8.097389999999999866e-01 -1.045957999999999943e+00 -1.010863999999999985e+00 -1.264734000000000025e+00 1.022637999999999936e+00 9.038110000000000310e-01 1.098530000000000062e-01 1.427125999999999895e+00 -7.044010000000000549e-01 -4.545520000000000116e-01 1.761338000000000070e+00 1.634236999999999940e+00 -4.671859999999999902e-01 -8.999110000000000165e-01 -1.910409999999999886e-01 3.727999999999999977e-03 1.706989999999999896e-01 1.810181999999999958e+00 6.241910000000000514e-01 1.254266000000000103e+00 -8.331600000000000117e-01 -2.000499999999999848e-02 -9.958700000000000330e-01 1.212026000000000048e+00 -1.470250999999999975e+00 2.372600000000000056e-02 2.776469000000000076e+00 -1.612689999999999957e+00 1.106609999999999955e-01 -6.890110000000000401e-01 -6.661589999999999456e-01 -6.367100000000000537e-02 -3.559842000000000173e+00 -2.396126000000000200e+00 1.739864999999999995e+00 -7.336669999999999581e-01 -1.246799999999999908e+00 4.346030000000000171e-01 -1.838190999999999908e+00 -9.929710000000000480e-01 -3.208333000000000101e+00 2.991460000000000230e-01 5.658429999999999849e-01 -1.377372999999999958e+00 -7.623769999999999714e-01 -9.061940000000000550e-01 -1.627309999999999868e-01 1.348099999999999993e-02 2.961300000000000043e-01 5.887980000000000436e-01 5.174889999999999768e-01 1.245165999999999995e+00 5.811169999999999947e-01 -7.467300000000000049e-01 -1.441257999999999928e+00 -1.213885000000000103e+00 8.392659999999999565e-01 9.226389999999999869e-01 -5.462970000000000326e-01 1.213616999999999946e+00 4.739149999999999752e-01 -1.800661999999999985e+00 -2.177375000000000060e+00 4.009229999999999738e-01 -6.888630000000000031e-01 2.248161000000000076e+00 -1.159410000000000052e+00 1.732019999999999893e+00 -1.532616999999999896e+00 -1.434293999999999958e+00 -9.223190000000000000e-01 8.970960000000000045e-01 6.608349999999999502e-01 4.630529999999999924e-01 -6.752939999999999499e-01 5.967500000000000027e-01 1.700625000000000053e+00 -2.120677000000000145e+00 6.297500000000000320e-01 2.854289999999999883e-01 -1.651580000000000048e+00 -8.063590000000000479e-01 -6.647960000000000536e-01
6.536969999999999725e-01 -8.265090000000000492e-01 1.978310000000000068e-01 2.067419999999999813e+00 -6.687899999999999401e-02 4.961960000000000259e-01 -2.370467999999999797e+00 2.053364999999999885e+00 -2.447674999999999823e+00 3.260239999999999805e-01 6.003389999999999560e-01 9.275489999999999569e-01 -9.202209999999999557e-01 -1.862287000000000026e+00 8.748799999999999910e-01 -1.538232999999999961e+00 -7.783130000000000326e-01 -2.394362000000000101e+00 -7.008670000000000178e-01 -9.336999999999999744e-01 -4.219979999999999842e-01 3.055495000000000072e+00 2.295647000000000215e+00 -1.287379999999999913e-01 -9.408720000000000416e-01 -2.065097999999999878e+00 -2.123886999999999858e+00 -1.094254999999999978e+00 5.873070000000000235e-01 -1.434382000000000046e+00 2.957640000000000269e-01 -7.832050000000000400e-01 -2.861040000000000250e-01 4.411749999999999838e-01 -2.142259999999999998e-01 -5.277770000000000516e-01 -1.910509999999999986e-01 -1.721669999999999867e-01 -7.261339999999999462e-01 -6.451810000000000045e-01 -3.289544999999999941e+00 -1.873170000000000113e-01 1.712731999999999921e+00 1.693449999999999900e+00 1.038356999999999974e+00 -1.144058999999999937e+00 -6.783000000000000140e-01 -8.707470000000000487e-01 2.824030000000000151e-01 8.489139999999999464e-01 1.414439999999999864e-01 1.004400000000000084e-02 -1.278299999999999922e-02 -6.719100000000000072e-01 3.795850000000000057e-01 1.878044999999999964e+00 -1.700619999999999910e-01 -4.171549999999999980e-01 -4.501539999999999986e-01 2.202030000000000098e-01 1.919140000000000013e-01 -8.175000000000000044e-01 1.755136999999999947e+00 -2.856339000000000183e+00 -5.377049999999999885e-01 -1.620972999999999997e+00 6.293100000000000083e-02 -1.870300000000000018e-01 -2.658624999999999794e+00 3.537760000000000016e+00 -1.806712000000000096e+00 2.367000000000000007e-02 1.737599999999999978e-01 -1.417291000000000079e+00 1.584219000000000044e+00 -1.295963999999999894e+00 -1.739809999999999968e-01 6.449650000000000105e-01 1.828915000000000068e+00 -4.081650000000000000e-01 -2.842299999999999827e-01 6.332839999999999581e-01 -1.156728999999999896e+00 1.142665000000000042e+00 -1.373880999999999908e+00 1.330969999999999986e+00 1.368117000000000028e+00 4.275930000000000009e-01 -8.175750000000000517e-01 2.914760000000000129e-01 -6.264899999999999636e-02 2.574219999999999842e-01 5.086629999999999763e-01 6.853299999999999670e-02 1.256413999999999920e+00 4.346960000000000268e-01 5.641369999999999996e-01 1.188431999999999933e+00 -2.295672999999999853e+00 -8.645999999999999172e-03 2.085730000000000084e-01 6.401580000000000048e-01 -1.426500000000000101e+00 9.008969999999999478e-01 1.107210000000000027e+00 -6.909600000000000186e-01 -1.152606000000000019e+00 2.878934000000000104e+00 -4.723399999999999821e-02 1.964619999999999977e-01 -9.108389999999999542e-01 2.267186999999999841e+00 3.020207000000000086e+00 -2.019120000000000081e-01 -2.498860000000000081e+00 -1.409111999999999920e+00 -1.558100000000000041e-01 5.192769999999999886e-01 9.581359999999999877e-01 1.265044000000000057e+00 -2.861864999999999881e+00 -7.950779999999999514e-01 -2.267018000000000200e+00 -4.117999999999999994e-01 4.107210000000000027e-01 2.596435000000000048e+00 2.317930000000000046e+00 -1.181920000000000054e-01 -7.946539999999999715e-01 -6.968830000000000302e-01 -1.095549999999999996e-01 -1.028639999999999971e-01 7.735619999999999719e-01 9.641530000000000378e-01 8.764509999999999801e-01 1.230180000000000051e+00 9.141010000000000524e-01 3.402740000000000209e-01 -1.908862000000000059e+00 -2.161461000000000077e+00 4.416129999999999778e-01 1.149764999999999926e+00 3.665430000000000077e-01 1.641138999999999903e+00 -6.035390000000000477e-01 2.555077999999999960e+00 8.372899999999999787e-01 1.324600000000000083e-02 -9.397520000000000318e-01 -1.765980000000000050e-01 2.871239999999999903e-01 -2.705819999999999892e-01 -9.654289999999999816e-01 6.458620000000000472e-01 9.067389999999999617e-01 -7.421750000000000291e-01 7.890460000000000251e-01 1.020273999999999903e+00 1.293276000000000092e+00