4.420600000000000307e+00 7.550869999999999749e+00 5.310999999999999749e-02 1.002671999999999919e+01 9.141599999999999726e-01 2.436479999999999979e+00 7.226829999999999643e+00 9.144539999999999225e+00 4.779110000000000191e+00 1.003970999999999947e+01 2.479070000000000107e+00 3.874999999999999972e-02 1.152397000000000027e+01 3.460469999999999935e+00 2.425689999999999902e+00 2.913780000000000037e+00 5.001529999999999809e+00 4.417000000000000093e-02 4.415899999999999714e+00 5.899569999999999759e+00 2.356739999999999835e+00 1.444833000000000034e+01 6.860920000000000130e+00 4.796579999999999622e+00 7.177699999999999747e+00 2.622170000000000112e+00 6.953369999999999607e+00 8.616300000000000736e+00 8.349930000000000518e+00 2.301289999999999836e+00 1.006774000000000058e+01 9.196870000000000545e+00 4.663599999999999746e+00 4.184520000000000017e+00 2.549679999999999946e+00 7.400000000000000328e-03 5.839830000000000076e+00 3.399500000000000188e+00 2.353359999999999896e+00 7.244580000000000020e+00 4.273769999999999847e+00 4.660009999999999764e+00 1.013996999999999993e+01 7.601919999999999789e+00 7.054920000000000080e+00 7.198800000000000310e+00 5.948640000000000150e+00 2.311430000000000096e+00 8.596399999999999153e+00 6.779160000000000075e+00 4.670469999999999899e+00 1.016943000000000019e+01 2.669369999999999798e+00 7.083540000000000170e+00 1.145665999999999940e+01 8.310140000000000526e+00 2.365470000000000184e+00 8.744229999999999947e+00 1.764590000000000103e+00 4.754319999999999879e+00 7.150640000000000107e+00 2.549249999999999794e+00 8.691000000000000114e-02 8.678900000000000503e+00 3.419230000000000214e+00 2.365950000000000220e+00 1.012076000000000064e+01 4.309140000000000192e+00 4.762889999999999624e+00 1.301792000000000016e+01 7.656979999999999897e+00 6.983240000000000336e+00 1.010145999999999944e+01 5.983749999999999680e+00 2.327690000000000037e+00 1.158155999999999963e+01 6.719240000000000101e+00 4.786579999999999835e+00 2.895989999999999842e+00 1.613150000000000084e+00 1.135070000000000023e+00 4.346029999999999838e+00 2.496900000000000119e+00 3.589069999999999983e+00 5.755480000000000373e+00 3.490130000000000177e+00 5.883740000000000414e+00 4.293660000000000032e+00 4.229400000000000048e+00 1.147389999999999910e+00 5.735769999999999591e+00 5.056259999999999977e+00 3.472739999999999938e+00 7.162370000000000125e+00 5.912639999999999674e+00 5.964039999999999786e+00 5.785490000000000244e+00 6.718350000000000044e+00 1.235279999999999934e+00 7.198479999999999990e+00 7.620230000000000281e+00 3.611340000000000217e+00 8.698909999999999698e+00 8.415820000000000078e+00 5.873339999999999783e+00 5.752030000000000420e+00 1.632949999999999902e+00 1.295989999999999975e+00 7.199499999999999567e+00 2.547730000000000050e+00 3.591470000000000162e+00 8.666930000000000689e+00 3.418010000000000215e+00 5.929219999999999935e+00 7.269280000000000186e+00 4.208249999999999602e+00 1.084999999999999964e+00 8.647119999999999251e+00 5.137069999999999581e+00 3.583990000000000009e+00 1.007865999999999929e+01 5.958450000000000024e+00 5.896840000000000082e+00 8.612220000000000653e+00 6.751610000000000333e+00 1.167219999999999924e+00 9.897019999999999484e+00 7.573290000000000077e+00 3.485419999999999963e+00 1.150966000000000022e+01 8.385609999999999786e+00 5.896919999999999717e+00 8.543639999999999901e+00 1.600379999999999914e+00 1.220609999999999973e+00 1.006645999999999930e+01 2.610189999999999788e+00 3.526250000000000107e+00 1.149995999999999974e+01 3.405879999999999797e+00 5.794929999999999914e+00 1.010716000000000037e+01 4.229040000000000354e+00 1.127920000000000034e+00 1.152735999999999983e+01 5.093390000000000306e+00 3.607959999999999834e+00 1.295365999999999929e+01 5.931250000000000355e+00 5.908960000000000434e+00 1.149945999999999913e+01 6.714360000000000106e+00 1.181710000000000038e+00 1.289695999999999998e+01 7.584349999999999703e+00 3.544020000000000170e+00 1.438216000000000072e+01 8.440250000000000696e+00 5.913389999999999702e+00
8.646869999999999834e+00 9.777639999999999887e+00 6.862459999999999560e+00 9.978160000000000807e+00 9.422700000000000520e-01 2.472309999999999786e+00 7.225299999999999834e+00 8.993359999999999133e+00 4.668029999999999902e+00 9.972519999999999385e+00 2.522679999999999811e+00 9.317000000000000282e-02 1.145026000000000010e+01 3.323770000000000113e+00 2.311399999999999899e+00 7.302649999999999864e+00 7.262229999999999741e+00 6.846420000000000172e+00 4.308290000000000397e+00 5.603909999999999947e+00 2.389089999999999936e+00 5.919780000000000264e+00 6.638250000000000206e+00 4.540460000000000385e+00 6.981230000000000047e+00 2.501700000000000035e+00 6.947239999999999860e+00 4.292460000000000164e+00 7.907199999999999784e-01 2.279809999999999892e+00 1.001238999999999990e+01 8.865180000000000504e+00 4.656419999999999781e+00 8.628500000000000725e+00 4.788380000000000081e+00 6.904630000000000045e+00 5.788680000000000270e+00 3.274249999999999883e+00 2.446099999999999941e+00 7.008200000000000429e+00 4.166430000000000078e+00 4.647560000000000358e+00 1.012648000000000081e+01 7.219529999999999781e+00 6.977030000000000065e+00 7.292980000000000018e+00 5.697330000000000005e+00 2.267560000000000020e+00 8.557999999999999829e+00 6.403760000000000119e+00 4.495730000000000004e+00 9.964639999999999276e+00 7.425880000000000258e+00 6.815000000000000224e-02 1.138396000000000008e+01 8.092629999999999768e+00 2.246929999999999872e+00 8.530290000000000816e+00 1.661100000000000021e+00 4.656729999999999592e+00 7.332429999999999559e+00 2.436319999999999819e+00 9.690000000000000002e-02 8.668210000000000193e+00 3.310239999999999849e+00 2.452020000000000088e+00 1.006306000000000012e+01 4.137459999999999916e+00 4.620610000000000106e+00 1.280884000000000000e+01 7.281310000000000393e+00 6.900500000000000078e+00 1.009811999999999976e+01 5.609689999999999621e+00 2.172270000000000145e+00 1.149506000000000050e+01 6.438869999999999649e+00 4.528270000000000017e+00 2.769649999999999945e+00 1.679100000000000037e+00 1.267349999999999977e+00 4.342389999999999972e+00 2.701869999999999994e+00 3.862470000000000070e+00 5.800220000000000375e+00 3.320289999999999964e+00 5.871719999999999828e+00 4.299750000000000405e+00 3.860619999999999941e+00 1.340959999999999930e+00 5.742910000000000181e+00 4.923020000000000174e+00 3.487389999999999990e+00 7.121889999999999610e+00 5.705960000000000143e+00 5.831590000000000273e+00 5.687509999999999621e+00 6.601110000000000255e+00 1.132270000000000110e+00 7.192719999999999558e+00 7.405439999999999579e+00 3.423890000000000100e+00 8.578630000000000422e+00 8.114710000000000534e+00 5.698030000000000150e+00 5.774989999999999846e+00 1.500850000000000017e+00 1.196080000000000032e+00 7.117709999999999759e+00 2.447430000000000216e+00 3.440370000000000150e+00 8.651410000000000267e+00 3.370849999999999902e+00 5.838479999999999670e+00 7.097199999999999953e+00 4.104610000000000092e+00 1.162740000000000107e+00 8.495660000000000878e+00 4.964730000000000310e+00 3.599509999999999987e+00 1.027225999999999928e+01 5.700219999999999843e+00 5.903480000000000061e+00 8.463599999999999568e+00 6.702659999999999840e+00 1.041069999999999940e+00 1.004739999999999966e+01 7.181020000000000181e+00 3.387779999999999792e+00 1.135116000000000014e+01 8.152369999999999450e+00 5.910059999999999647e+00 8.619270000000000209e+00 1.652609999999999912e+00 1.170060000000000100e+00 1.005423000000000044e+01 2.471649999999999903e+00 3.643899999999999917e+00 1.147236000000000011e+01 3.426709999999999923e+00 5.791249999999999787e+00 9.800449999999999662e+00 4.199180000000000135e+00 1.130730000000000013e+00 1.130865999999999971e+01 4.801490000000000258e+00 3.443639999999999812e+00 1.306766000000000005e+01 5.782499999999999751e+00 5.704100000000000392e+00 1.144295999999999935e+01 6.352610000000000312e+00 9.648299999999999654e-01 1.274446000000000012e+01 7.653340000000000032e+00 3.463029999999999831e+00 1.421505999999999936e+01 8.375030000000000641e+00 5.858559999999999768e+00
8.448650000000000659e+00 4.247000000000000081e-02 1.554999999999999959e-02 1.543509999999999938e+00 9.105600000000000360e-01 2.391610000000000014e+00 2.870080000000000187e+00 1.668139999999999956e+00 4.619460000000000122e+00 1.436261000000000010e+01 4.977459999999999773e+00 6.926149999999999807e+00 2.914610000000000145e+00 3.376939999999999831e+00 2.137799999999999923e+00 7.248039999999999594e+00 7.426499999999999879e+00 6.868100000000000094e+00 4.432710000000000150e+00 5.670989999999999753e+00 2.372320000000000206e+00 1.433877999999999986e+01 6.612190000000000012e+00 4.520199999999999996e+00 7.091339999999999755e+00 7.271119999999999806e+00 6.275999999999999635e-02 4.366979999999999862e+00 8.469799999999999551e-01 2.312100000000000044e+00 5.633230000000000182e+00 1.706530000000000102e+00 4.600310000000000343e+00 8.629120000000000346e+00 4.828879999999999839e+00 6.938430000000000319e+00 5.718079999999999607e+00 3.406179999999999986e+00 2.373200000000000198e+00 7.316279999999999895e+00 4.142929999999999779e+00 4.593560000000000088e+00 1.004365999999999914e+01 7.373780000000000001e+00 6.920630000000000059e+00 7.165820000000000078e+00 5.691860000000000142e+00 2.283549999999999969e+00 8.577569999999999695e+00 6.532409999999999606e+00 4.694270000000000387e+00 1.432825000000000060e+01 9.707169999999999632e+00 6.949270000000000280e+00 1.151262999999999970e+01 8.151270000000000238e+00 2.320969999999999978e+00 1.288053999999999988e+01 9.011260000000000048e+00 4.741789999999999949e+00 7.087320000000000064e+00 2.462380000000000013e+00 1.106899999999999967e-01 8.597599999999999909e+00 3.272940000000000182e+00 2.278140000000000054e+00 9.977759999999999962e+00 4.180100000000000371e+00 4.637559999999999683e+00 1.293163999999999980e+01 7.354549999999999699e+00 6.881490000000000329e+00 1.006916000000000011e+01 5.763930000000000220e+00 2.245270000000000099e+00 1.159623999999999988e+01 6.485360000000000014e+00 4.629509999999999792e+00 2.850029999999999841e+00 1.587919999999999998e+00 1.161079999999999890e+00 4.274530000000000385e+00 2.591819999999999791e+00 3.477219999999999978e+00 5.571839999999999904e+00 3.262929999999999886e+00 5.818159999999999776e+00 4.243890000000000384e+00 4.008619999999999628e+00 1.129979999999999984e+00 5.755659999999999776e+00 4.947919999999999874e+00 3.595790000000000042e+00 7.264280000000000292e+00 5.680609999999999715e+00 5.847760000000000069e+00 5.730769999999999698e+00 6.495180000000000398e+00 1.317830000000000057e+00 7.206970000000000098e+00 7.344809999999999839e+00 3.446009999999999796e+00 8.638970000000000482e+00 8.210470000000000823e+00 5.840670000000000250e+00 5.833269999999999733e+00 1.674949999999999939e+00 1.252140000000000031e+00 7.149140000000000050e+00 2.553789999999999782e+00 3.636719999999999953e+00 8.561840000000000117e+00 3.190440000000000165e+00 6.005469999999999864e+00 7.182909999999999684e+00 4.205300000000000260e+00 1.147650000000000059e+00 8.590960000000000818e+00 4.984379999999999811e+00 3.459940000000000015e+00 1.006001000000000012e+01 5.657230000000000203e+00 5.851869999999999905e+00 8.621900000000000119e+00 6.553259999999999863e+00 1.246299999999999963e+00 1.010665000000000013e+01 7.288590000000000124e+00 3.473520000000000163e+00 1.152913999999999994e+01 8.070059999999999789e+00 5.828579999999999650e+00 8.639760000000000773e+00 1.563420000000000032e+00 1.192229999999999901e+00 1.010810999999999993e+01 2.560849999999999849e+00 3.502359999999999918e+00 1.152333999999999925e+01 3.372990000000000155e+00 5.739220000000000432e+00 9.987859999999999516e+00 4.074510000000000076e+00 1.135829999999999895e+00 1.153233999999999959e+01 4.959609999999999630e+00 3.441279999999999895e+00 1.304784000000000077e+01 5.772730000000000139e+00 5.723419999999999952e+00 1.130293999999999954e+01 6.451439999999999841e+00 1.035949999999999926e+00 1.304724000000000039e+01 7.453219999999999956e+00 3.335620000000000029e+00 1.441953999999999958e+01 8.228320000000000078e+00 5.881949999999999790e+00
8.652499999999999858e+00 9.918179999999999552e+00 7.011199999999999655e+00 1.457230000000000025e+00 8.159600000000000186e-01 2.280520000000000103e+00 7.163140000000000285e+00 9.117309999999999803e+00 4.605299999999999727e+00 1.015456999999999965e+01 2.621890000000000054e+00 5.197000000000000230e-02 1.151896999999999949e+01 3.346550000000000136e+00 2.372840000000000060e+00 7.268460000000000143e+00 7.480209999999999582e+00 6.956710000000000171e+00 1.285457000000000072e+01 5.882419999999999760e+00 2.292949999999999822e+00 5.755370000000000097e+00 6.651139999999999830e+00 4.696790000000000020e+00 7.214620000000000033e+00 2.599340000000000206e+00 7.023369999999999891e+00 8.647899999999999920e+00 8.338800000000000878e+00 2.424549999999999983e+00 5.834959999999999702e+00 1.648930000000000007e+00 4.599569999999999936e+00 4.371990000000000265e+00 2.478889999999999816e+00 4.433000000000000135e-02 5.731359999999999566e+00 3.286639999999999784e+00 2.337889999999999802e+00 7.092109999999999914e+00 4.176960000000000228e+00 4.632570000000000299e+00 1.006137000000000015e+01 7.506739999999999746e+00 7.001350000000000406e+00 7.156220000000000248e+00 5.775850000000000151e+00 2.349619999999999820e+00 8.633710000000000662e+00 6.580300000000000260e+00 4.703759999999999941e+00 1.435266999999999982e+01 9.964199999999999946e+00 7.005630000000000024e+00 1.151146999999999920e+01 8.248820000000000263e+00 2.296450000000000102e+00 8.616120000000000445e+00 1.741370000000000084e+00 4.603159999999999918e+00 7.236410000000000231e+00 2.460760000000000058e+00 1.284000000000000072e-02 8.654700000000000060e+00 3.360829999999999984e+00 2.370740000000000069e+00 1.018806999999999974e+01 4.177699999999999747e+00 4.759140000000000370e+00 1.290396999999999927e+01 7.605190000000000339e+00 6.975740000000000052e+00 9.997339999999999449e+00 5.790210000000000079e+00 2.307830000000000048e+00 1.143837000000000081e+01 6.681659999999999933e+00 4.676129999999999676e+00 2.884360000000000035e+00 1.683759999999999923e+00 1.224539999999999962e+00 4.269409999999999705e+00 2.549389999999999823e+00 3.542910000000000004e+00 5.756569999999999965e+00 3.349169999999999980e+00 5.849339999999999762e+00 4.327960000000000029e+00 4.183950000000000280e+00 1.220690000000000053e+00 5.766420000000000101e+00 4.981060000000000265e+00 3.533630000000000049e+00 7.157020000000000159e+00 5.778299999999999770e+00 5.843539999999999957e+00 5.720119999999999649e+00 6.580739999999999590e+00 1.144039999999999946e+00 7.188749999999999751e+00 7.454150000000000276e+00 3.537069999999999936e+00 8.605909999999999727e+00 8.252660000000000551e+00 5.918599999999999639e+00 5.703710000000000058e+00 1.779959999999999987e+00 1.200809999999999933e+00 7.135679999999999801e+00 2.434079999999999799e+00 3.485100000000000087e+00 8.576879999999999171e+00 3.309169999999999945e+00 5.902829999999999799e+00 7.249810000000000088e+00 4.097019999999999662e+00 1.155080000000000107e+00 8.693680000000000518e+00 4.931779999999999831e+00 3.440339999999999954e+00 1.009327000000000041e+01 5.812039999999999651e+00 5.855889999999999596e+00 8.659769999999999968e+00 6.651279999999999859e+00 1.088489999999999958e+00 1.006487000000000087e+01 7.513340000000000352e+00 3.596979999999999844e+00 1.153036999999999956e+01 8.336360000000000881e+00 5.778810000000000002e+00 8.701330000000000453e+00 1.687210000000000099e+00 1.224169999999999980e+00 1.009237000000000073e+01 2.523210000000000175e+00 3.582300000000000040e+00 1.151656999999999975e+01 3.391970000000000152e+00 5.881339999999999790e+00 1.011617000000000033e+01 4.170449999999999768e+00 1.222290000000000099e+00 1.150746999999999964e+01 4.969739999999999824e+00 3.566190000000000193e+00 1.299427000000000021e+01 5.809490000000000265e+00 5.868909999999999627e+00 1.142797000000000018e+01 6.590620000000000367e+00 1.147100000000000009e+00 1.289337000000000089e+01 7.558679999999999843e+00 3.410810000000000120e+00 1.442567000000000021e+01 8.351689999999999614e+00 5.816189999999999749e+00
4.344870000000000232e+00 2.526940000000000186e+00 6.931460000000000399e+00 5.666960000000000441e+00 8.097989999999999355e+00 2.276740000000000208e+00 2.853629999999999889e+00 1.719330000000000025e+00 4.607359999999999900e+00 1.460579999999999989e+00 2.302589999999999915e+00 2.249999999999999830e-03 2.921019999999999950e+00 3.292370000000000019e+00 2.302239999999999842e+00 1.134830000000000005e+01 4.819720000000000226e+00 1.041200000000000042e-01 1.286117999999999917e+01 5.752830000000000332e+00 2.387370000000000214e+00 5.762979999999999769e+00 6.567330000000000112e+00 4.645159999999999734e+00 7.113240000000000229e+00 2.551569999999999894e+00 6.871730000000000338e+00 4.159089999999999954e+00 8.641100000000000447e-01 2.331389999999999851e+00 9.974869999999999237e+00 8.960029999999999717e+00 4.608559999999999768e+00 4.225550000000000139e+00 2.417120000000000157e+00 7.424000000000000044e-02 5.789209999999999745e+00 3.315920000000000201e+00 2.364759999999999973e+00 7.116419999999999746e+00 4.051199999999999690e+00 4.605310000000000237e+00 9.961959999999999482e+00 7.385589999999999655e+00 6.874929999999999986e+00 7.062269999999999825e+00 5.675360000000000404e+00 2.340939999999999799e+00 8.504229999999999734e+00 6.571139999999999759e+00 4.689549999999999663e+00 1.001253999999999955e+01 7.292930000000000135e+00 1.223999999999999914e-02 7.079480000000000217e+00 8.888800000000000034e-01 2.309379999999999988e+00 8.577859999999999374e+00 1.744140000000000024e+00 4.557290000000000063e+00 1.147359999999999935e+01 4.976479999999999571e+00 6.972260000000000346e+00 8.597899999999999210e+00 3.293759999999999799e+00 2.342270000000000074e+00 9.938439999999999941e+00 4.081680000000000419e+00 4.687170000000000059e+00 1.278870000000000040e+01 7.429299999999999571e+00 6.961619999999999919e+00 9.955740000000000478e+00 5.750420000000000087e+00 2.392079999999999984e+00 1.145260000000000034e+01 6.596009999999999707e+00 4.601329999999999920e+00 2.793400000000000105e+00 1.643559999999999910e+00 1.116100000000000092e+00 4.283000000000000362e+00 2.491010000000000169e+00 3.480090000000000128e+00 5.807109999999999772e+00 3.301120000000000054e+00 5.659440000000000026e+00 4.325929999999999609e+00 4.045119999999999827e+00 1.211249999999999938e+00 5.726359999999999673e+00 5.010189999999999699e+00 3.456500000000000128e+00 7.142269999999999897e+00 5.801050000000000040e+00 5.882900000000000240e+00 5.783549999999999969e+00 6.508309999999999818e+00 1.049039999999999973e+00 7.055139999999999745e+00 7.428180000000000227e+00 3.517380000000000173e+00 8.572960000000000136e+00 8.265249999999999986e+00 5.839629999999999654e+00 5.700870000000000104e+00 1.672960000000000003e+00 1.135520000000000085e+00 7.092069999999999652e+00 2.540169999999999817e+00 3.393759999999999888e+00 8.569630000000000081e+00 3.286389999999999922e+00 5.803060000000000329e+00 7.209489999999999732e+00 4.041830000000000034e+00 1.226820000000000022e+00 8.522009999999999863e+00 4.951319999999999943e+00 3.580639999999999823e+00 9.936130000000000351e+00 5.758600000000000385e+00 5.852759999999999962e+00 8.376269999999999882e+00 6.536669999999999980e+00 1.166800000000000059e+00 9.955389999999999517e+00 7.362709999999999866e+00 3.528099999999999792e+00 1.140310000000000024e+01 8.145630000000000592e+00 5.739670000000000272e+00 8.589880000000000848e+00 1.616460000000000008e+00 1.123979999999999979e+00 1.000619999999999976e+01 2.411859999999999893e+00 3.424300000000000122e+00 1.143180000000000085e+01 3.303999999999999826e+00 5.728760000000000296e+00 1.004191999999999929e+01 4.202980000000000160e+00 1.205300000000000038e+00 1.139579999999999949e+01 4.854879999999999640e+00 3.618119999999999781e+00 1.285229999999999961e+01 5.710560000000000080e+00 5.867759999999999643e+00 1.138949999999999996e+01 6.537490000000000023e+00 1.306669999999999998e+00 1.288400000000000034e+01 7.363550000000000040e+00 3.463970000000000216e+00 1.426720000000000077e+01 8.179080000000000794e+00 5.911950000000000038e+00
1.292525999999999975e+01 2.713649999999999896e+00 7.011870000000000047e+00 5.721370000000000289e+00 8.297879999999999256e+00 2.322799999999999976e+00 7.141869999999999941e+00 9.138680000000000803e+00 4.660919999999999952e+00 5.732099999999999973e+00 5.062070000000000292e+00 6.969509999999999650e+00 1.139305000000000057e+01 3.252170000000000005e+00 2.456879999999999953e+00 2.944920000000000204e+00 5.011140000000000150e+00 3.597000000000000197e-02 4.367659999999999876e+00 5.848139999999999894e+00 2.407039999999999846e+00 1.419583000000000084e+01 6.633630000000000138e+00 4.767299999999999649e+00 7.128599999999999604e+00 7.380460000000000242e+00 4.991999999999999910e-02 8.582599999999999341e+00 8.318260000000000431e+00 2.338350000000000151e+00 1.005497000000000085e+01 9.146110000000000184e+00 4.731620000000000381e+00 8.622540000000000759e+00 5.078899999999999970e+00 6.966730000000000089e+00 5.751529999999999809e+00 3.332349999999999923e+00 2.431750000000000078e+00 7.180629999999999846e+00 4.138860000000000205e+00 4.638659999999999783e+00 5.719829999999999970e+00 4.991329999999999600e+00 3.416000000000000286e-02 7.138399999999999856e+00 5.958370000000000388e+00 2.422079999999999789e+00 8.666610000000000369e+00 6.613990000000000258e+00 4.641729999999999912e+00 1.007440000000000069e+01 7.393989999999999618e+00 1.529999999999999893e-03 1.151681999999999917e+01 8.355729999999999436e+00 2.557059999999999889e+00 8.663190000000000168e+00 1.745430000000000037e+00 4.709019999999999762e+00 7.163160000000000416e+00 2.559280000000000221e+00 1.173600000000000060e-01 8.616680000000000561e+00 3.327490000000000059e+00 2.357250000000000068e+00 1.012480000000000047e+01 4.192350000000000243e+00 4.805629999999999846e+00 1.289377999999999957e+01 7.553689999999999571e+00 7.061609999999999943e+00 1.004890999999999934e+01 5.798490000000000144e+00 2.396549999999999958e+00 1.146250000000000036e+01 6.830639999999999823e+00 4.774029999999999774e+00 2.858470000000000066e+00 1.524389999999999912e+00 1.084480000000000111e+00 4.308489999999999931e+00 2.370029999999999859e+00 3.576929999999999943e+00 5.693920000000000314e+00 3.345380000000000020e+00 5.723099999999999632e+00 4.303200000000000358e+00 4.161410000000000053e+00 1.235309999999999908e+00 5.815549999999999997e+00 4.974070000000000213e+00 3.508150000000000102e+00 7.211560000000000414e+00 5.828759999999999941e+00 5.903179999999999872e+00 5.738819999999999588e+00 6.671800000000000175e+00 1.156050000000000022e+00 7.150820000000000398e+00 7.567540000000000155e+00 3.475760000000000183e+00 8.626170000000000115e+00 8.438259999999999650e+00 5.976160000000000139e+00 5.636190000000000033e+00 1.629089999999999927e+00 1.127979999999999983e+00 7.269549999999999734e+00 2.503070000000000128e+00 3.531899999999999817e+00 8.537110000000000198e+00 3.309079999999999799e+00 5.863019999999999676e+00 7.115990000000000038e+00 4.128849999999999909e+00 1.356319999999999970e+00 8.638379999999999725e+00 5.034510000000000041e+00 3.456249999999999822e+00 1.013912999999999975e+01 5.951810000000000045e+00 5.907659999999999911e+00 8.636760000000000659e+00 6.756859999999999644e+00 1.214739999999999931e+00 1.014789999999999992e+01 7.467290000000000205e+00 3.584649999999999892e+00 1.142559999999999931e+01 8.435309999999999420e+00 5.872340000000000337e+00 8.610950000000000770e+00 1.742070000000000007e+00 1.042000000000000037e+00 1.004003999999999941e+01 2.490530000000000133e+00 3.546699999999999964e+00 1.146240000000000059e+01 3.413580000000000059e+00 5.940210000000000434e+00 1.002136999999999922e+01 4.117070000000000007e+00 1.146539999999999893e+00 1.150569999999999915e+01 4.905319999999999681e+00 3.534110000000000085e+00 1.288439999999999941e+01 6.003820000000000157e+00 5.932489999999999597e+00 1.141339999999999932e+01 6.617619999999999614e+00 1.220369999999999955e+00 1.289830000000000076e+01 7.532169999999999810e+00 3.460719999999999796e+00 1.435820000000000007e+01 8.459830000000000183e+00 5.903690000000000104e+00
4.514140000000000263e+00 7.469590000000000174e+00 5.338999999999999996e-02 5.893130000000000202e+00 8.203829999999999956e+00 2.205979999999999830e+00 7.356539999999999857e+00 9.121689999999999188e+00 4.652379999999999960e+00 1.014907999999999966e+01 2.452970000000000095e+00 4.361999999999999905e-02 2.909679999999999822e+00 3.343459999999999877e+00 2.230199999999999960e+00 1.148767999999999923e+01 4.915239999999999831e+00 1.405999999999999958e-02 1.300378000000000078e+01 5.758549999999999613e+00 2.362639999999999851e+00 5.902079999999999771e+00 6.707189999999999763e+00 4.738769999999999705e+00 7.164320000000000022e+00 2.583600000000000119e+00 6.999060000000000059e+00 4.405140000000000278e+00 8.939899999999999514e-01 2.233989999999999920e+00 5.673519999999999897e+00 1.724220000000000086e+00 4.710219999999999629e+00 8.700689999999999813e+00 5.069230000000000125e+00 6.928110000000000213e+00 5.780520000000000103e+00 3.385180000000000078e+00 2.434810000000000141e+00 7.289209999999999745e+00 4.258659999999999890e+00 4.685670000000000002e+00 5.833689999999999820e+00 5.003400000000000070e+00 4.635000000000000231e-02 7.389730000000000132e+00 5.809549999999999770e+00 2.277229999999999865e+00 8.735239999999999227e+00 6.670069999999999943e+00 4.634890000000000398e+00 1.446508000000000038e+01 9.976699999999999235e+00 7.019940000000000069e+00 1.182520000000000060e+01 8.278050000000000352e+00 2.383230000000000182e+00 1.319951999999999970e+01 9.135460000000000136e+00 4.665809999999999569e+00 7.260539999999999772e+00 2.415849999999999831e+00 7.245999999999999663e-02 8.753640000000000754e+00 3.372770000000000046e+00 2.333810000000000162e+00 1.005958000000000041e+01 4.157379999999999853e+00 4.707790000000000141e+00 1.307817999999999969e+01 7.505200000000000315e+00 6.983819999999999695e+00 1.018368000000000073e+01 5.815710000000000157e+00 2.307920000000000194e+00 1.174757999999999925e+01 6.748579999999999579e+00 4.716409999999999769e+00 2.853180000000000049e+00 1.546729999999999938e+00 1.099760000000000071e+00 4.447989999999999888e+00 2.633140000000000036e+00 3.542339999999999822e+00 5.838230000000000253e+00 3.316489999999999938e+00 5.858229999999999826e+00 4.337790000000000035e+00 4.093860000000000277e+00 1.167769999999999975e+00 6.031909999999999883e+00 5.125949999999999562e+00 3.536820000000000075e+00 7.284550000000000303e+00 5.907180000000000319e+00 5.897660000000000124e+00 5.925980000000000025e+00 6.609700000000000131e+00 1.217819999999999903e+00 7.258180000000000298e+00 7.601479999999999571e+00 3.590629999999999988e+00 8.729229999999999379e+00 8.343980000000000175e+00 5.942560000000000286e+00 5.720519999999999605e+00 1.642030000000000101e+00 1.115790000000000060e+00 7.177509999999999835e+00 2.533469999999999889e+00 3.528589999999999893e+00 8.810950000000000060e+00 3.300469999999999793e+00 5.838969999999999771e+00 7.304249999999999687e+00 4.242270000000000429e+00 1.158579999999999943e+00 8.744630000000000791e+00 4.982020000000000337e+00 3.609249999999999847e+00 1.028027999999999942e+01 5.862190000000000012e+00 5.865680000000000227e+00 8.788719999999999644e+00 6.614709999999999646e+00 1.132200000000000095e+00 1.010027999999999970e+01 7.502989999999999604e+00 3.541729999999999823e+00 1.182018000000000058e+01 8.515200000000000102e+00 5.845869999999999678e+00 8.698700000000000543e+00 1.613240000000000007e+00 1.114509999999999890e+00 1.022488000000000063e+01 2.448710000000000164e+00 3.358130000000000059e+00 1.163418000000000063e+01 3.286950000000000038e+00 5.875589999999999868e+00 1.013338000000000072e+01 4.293580000000000396e+00 1.145259999999999945e+00 1.168748000000000076e+01 4.846870000000000012e+00 3.577080000000000037e+00 1.324067999999999934e+01 5.888829999999999565e+00 5.841990000000000016e+00 1.165287999999999968e+01 6.618490000000000428e+00 1.273309999999999942e+00 1.302047999999999917e+01 7.479400000000000048e+00 3.556540000000000035e+00 1.457548000000000066e+01 8.317299999999999471e+00 5.845069999999999766e+00