-4.192304851299999768e+02
-4.133780363800000259e+02
-4.175004471600000215e+02
-4.198471918999999843e+02
-4.196975251900000217e+02
-4.180856777199999783e+02
-4.175772114900000247e+02
-4.186146259999999870e+02
-4.174633224799999880e+02
-4.146104628300000172e+02
-4.176310369299999934e+02
-4.137989553300000125e+02
-4.182127242400000000e+02
-4.143508118799999806e+02
-4.199908646700000077e+02
-4.136770922800000108e+02
-4.129545978500000274e+02
-4.128335342500000138e+02
-4.179519737800000030e+02
-4.195471186500000158e+02
-4.157926423000000113e+02
-4.176744771099999980e+02
-4.192141935999999873e+02
-4.195370734200000129e+02
-4.176383726400000000e+02
-4.182653115100000036e+02
-4.179871110099999783e+02
-4.185420461900000078e+02
-4.198823367699999949e+02
-4.132227320900000223e+02
-4.212231531900000050e+02
-4.199376016300000174e+02
-4.145948413799999912e+02
-4.201694813500000123e+02
-4.122883260199999995e+02
-4.149492508499999985e+02
-4.173286052299999938e+02
-4.188024828999999727e+02
-4.170509343499999773e+02
-4.176962965700000154e+02
-4.203664482199999952e+02
-4.138181990499999756e+02
-4.168900861299999860e+02
-4.184392579799999794e+02
-4.192231067499999995e+02
-4.146062499000000230e+02
-4.181277490800000010e+02
-4.175774256400000013e+02
-4.171633207799999923e+02
-4.145795139499999777e+02
