-2.798030253200000175e+02
-2.736138086500000099e+02
-2.755942487600000277e+02
-2.779566510299999891e+02
-2.776268556399999738e+02
-2.750790227900000104e+02
-2.803836059199999795e+02
-2.761412661900000103e+02
-2.745837085499999830e+02
-2.775232335100000114e+02
-2.771761701400000106e+02
-2.803452334899999983e+02
-2.776101074599999947e+02
-2.773187713400000121e+02
-2.747191665700000271e+02
-2.769889128300000039e+02
-2.778663633300000129e+02
-2.808421577999999954e+02
-2.775775959499999885e+02
-2.746509980199999745e+02
-2.764812918800000148e+02
-2.780414475200000197e+02
-2.781408867000000100e+02
-2.769656127000000083e+02
-2.743196332599999891e+02
-2.756393411399999991e+02
-2.797967472899999848e+02
-2.788600392499999998e+02
-2.739787528699999939e+02
-2.772680220899999881e+02
-2.803570861800000102e+02
-2.808421577999999954e+02
-2.758298998800000277e+02
-2.757187121200000206e+02
-2.774213689900000190e+02
-2.756959603899999820e+02
-2.744661503699999798e+02
-2.745610547499999825e+02
-2.771120735000000082e+02
-2.786424897900000133e+02
-2.802235110500000133e+02
-2.756341884600000185e+02
-2.777457112100000245e+02
-2.764531285099999991e+02
-2.742681423000000223e+02
-2.769964413199999740e+02
-2.779282342199999789e+02
-2.779032439399999816e+02
-2.745523959799999716e+02
-2.739207474699999807e+02
