-2.532090000000000174e-01 -3.215410000000000212e-01 1.467050000000000021e-01 -1.101260000000000017e-01 -1.888410000000000089e-01 1.851710000000000023e-01 -5.954399999999999971e-02 4.563380000000000214e-01 8.471800000000000164e-02 -1.593559999999999977e-01 -2.919220000000000148e-01 -2.272510000000000085e-01 -1.927900000000000100e-02 3.199000000000000021e-03 4.308980000000000032e-01 -1.487340000000000051e-01 -3.035799999999999957e-02 1.654170000000000085e-01 -1.578140000000000098e-01 -4.392949999999999910e-01 1.293799999999999950e-01 7.716999999999999901e-03 3.173909999999999787e-01 -2.424590000000000078e-01 -4.142810000000000104e-01 -2.859769999999999812e-01 -1.943350000000000077e-01 -1.422130000000000061e-01 -5.538480000000000070e-01 7.100429999999999797e-01 -1.847580000000000056e-01 -1.905540000000000012e-01 -2.837999999999999898e-02 -3.458269999999999955e-01 7.730800000000000172e-02 3.506969999999999810e-01 8.316630000000000411e-01 -5.618910000000000293e-01 5.480979999999999741e-01 -3.419699999999999823e-02 1.616080000000000017e-01 2.291009999999999991e-01 9.805300000000000127e-02 1.510399999999999937e-02 1.982740000000000058e-01 6.449350000000000360e-01 -3.620500000000000107e-02 -5.008460000000000134e-01 -2.743740000000000068e-01 5.889389999999999903e-01 -4.912119999999999820e-01 1.060013000000000094e+00 3.180649999999999866e-01 -7.906999999999999584e-01 -7.971699999999999620e-02 8.257079999999999975e-01 -5.160559999999999592e-01 2.726359999999999895e-01 -3.289460000000000162e-01 -1.038479999999999959e-01 -1.704299999999999982e-01 -2.351739999999999942e-01 -1.844270000000000076e-01 -6.230869999999999465e-01 5.684399999999999870e-02 -1.996310000000000029e-01 3.055300000000000030e-02 -3.022159999999999846e-01 -3.682119999999999838e-01 -3.483300000000000285e-02 -2.995570000000000177e-01 -1.782940000000000080e-01 -2.173609999999999987e-01 -3.814310000000000200e-01 -1.160100000000000020e-01 -1.590540000000000009e-01 -3.891839999999999744e-01 3.844069999999999987e-01 -8.828939999999999566e-01 -2.809000000000000039e-02 -1.851500000000000021e-02 4.026179999999999759e-01 5.668079999999999785e-01 -4.546979999999999911e-01 -1.632500000000000062e-01 3.208630000000000093e-01 -2.482099999999999931e-02 4.224319999999999742e-01 1.084159999999999985e-01 5.655040000000000067e-01 8.280200000000000060e-02 1.119707000000000008e+00 -8.280629999999999935e-01 4.662100000000000272e-02 7.381710000000000216e-01 -5.293879999999999697e-01 2.571200000000000152e-01 -1.792300000000000004e-01 -1.046099999999999947e-01 1.732889999999999986e-01 -1.970669999999999922e-01 7.106590000000000407e-01 3.038899999999999935e-01 -4.331409999999999982e-01 1.262685000000000057e+00
-2.788415999999999784e+00 -3.910950000000000260e-01 -8.140509999999999691e-01 4.599320000000000075e-01 -1.337182000000000093e+00 1.119011999999999896e+00 5.613400000000000334e-02 -1.730399999999999994e-01 1.488027999999999906e+00 -1.947099999999999873e-02 1.027040000000000036e-01 -1.049870000000000081e+00 1.254745999999999917e+00 -2.187063999999999897e+00 4.669659999999999922e-01 -2.254738000000000131e+00 -1.086379999999999985e-01 3.240015999999999785e+00 -2.085329999999999961e-01 1.143094000000000054e+00 -1.500401000000000096e+00 -4.071420000000000039e-01 5.853220000000000089e-01 -4.585230000000000139e-01 -1.710587999999999997e+00 -2.495400000000000049e-02 1.249429999999999985e-01 -5.646820000000000173e-01 -5.103769999999999696e-01 1.246509999999999979e-01 -2.498540999999999901e+00 -2.151250000000000107e+00 5.536450000000000538e-01 5.841049999999999853e-01 -9.678109999999999769e-01 9.584730000000000194e-01 -7.174600000000000422e-02 2.741750000000000020e-01 -1.697154999999999969e+00 1.034849999999999937e-01 3.185990000000000211e-01 -8.584399999999999809e-01 5.057279999999999553e-01 -3.683143999999999973e+00 8.647989999999999844e-01 1.584856000000000043e+00 1.961249999999999938e+00 1.067525000000000057e+00 5.403299999999999770e-02 1.586932999999999927e+00 -2.998029999999999862e-01 7.731930000000000192e-01 -8.907700000000000340e-02 8.428909999999999458e-01 3.157749999999999724e-01 6.015610000000000124e-01 2.320160000000000000e-01 1.540390000000000092e-01 1.679690000000000072e-01 9.532810000000000450e-01 -1.140206999999999971e+00 9.916989999999999972e-01 -1.572572999999999999e+00 3.319900000000000073e-01 -2.232429999999999914e+00 1.373818999999999901e+00 1.620999999999999941e-01 -1.675370000000000026e+00 4.932590000000000030e-01 -1.972899999999999932e-01 6.818530000000000424e-01 1.301933000000000007e+00 -8.189599999999999658e-02 5.598830000000000195e-01 1.139957000000000109e+00 1.208425000000000082e+00 5.774236000000000146e+00 -1.165577000000000085e+00 1.374460000000000126e-01 1.092878999999999934e+00 -3.225594000000000072e+00 1.540594000000000019e+00 -2.773749000000000020e+00 -3.568512999999999824e+00 1.185213999999999990e+00 -7.834000000000000685e-02 2.649451000000000001e+00 -5.632559999999999789e-01 2.499299999999999855e+00 -1.610997999999999930e+00 2.409900000000000098e-01 2.083816999999999808e+00 -6.097609999999999975e-01 -8.454409999999999981e-01 1.027911999999999937e+00 7.758150000000000324e-01 2.004080000000000084e+00 1.234553000000000011e+00 -1.261991000000000085e+00 1.396709999999999896e-01 -2.658347000000000016e+00 1.258869999999999989e-01 5.554069999999999840e-01 -1.645874000000000059e+00 -2.031179999999999930e-01
-1.606684999999999919e+00 1.614422000000000024e+00 -9.672999999999999654e-02 -8.335240000000000427e-01 6.192429999999999879e-01 2.531330000000000080e+00 4.495439999999999992e-01 -3.245290000000000119e-01 -4.035759999999999903e-01 8.798329999999999762e-01 2.996130000000000182e-01 2.313949999999999896e-01 -3.323820000000000108e-01 -2.315033000000000118e+00 -2.674289999999999723e-01 1.209421000000000079e+00 1.003805000000000058e+00 -1.188131000000000048e+00 -1.444042999999999966e+00 6.530000000000000214e-03 1.026046999999999931e+00 4.842389999999999750e-01 -1.324980000000000047e+00 -5.036100000000000299e-02 1.857186000000000003e+00 -7.389599999999999502e-01 -8.882919999999999705e-01 -1.967659000000000047e+00 2.174742999999999871e+00 1.139456000000000024e+00 -2.140529999999999933e-01 7.246690000000000076e-01 -6.747880000000000544e-01 -1.815080000000000027e-01 6.854139999999999677e-01 5.005319999999999769e-01 1.836195000000000022e+00 3.725570000000000270e-01 -5.467819999999999903e-01 -3.388399999999999745e-01 -1.259319999999999884e-01 7.314019999999999966e-01 1.192629999999999940e-01 -1.032493000000000105e+00 -3.161216000000000026e+00 1.844511999999999929e+00 -8.664849999999999497e-01 -2.376049000000000078e+00 -2.496910999999999881e+00 2.521666000000000185e+00 1.497247999999999912e+00 -4.847190000000000110e-01 8.120960000000000401e-01 -3.790000000000000036e-01 3.031629000000000129e+00 -2.778624000000000205e+00 7.855750000000000233e-01 -2.285314000000000068e+00 -9.932079999999999798e-01 -5.547560000000000269e-01 -5.015150000000000441e-01 -8.084480000000000555e-01 -6.873280000000000500e-01 -3.635999999999999788e-01 -6.637140000000000262e-01 -4.583900000000000197e-01 -5.664690000000000003e-01 -5.985549999999999482e-01 -1.002969999999999973e-01 -9.562990000000000101e-01 6.904099999999999682e-01 2.273179999999999923e-01 -7.084789999999999699e-01 2.282671000000000117e+00 -3.657880000000000020e-01 5.116592999999999947e+00 5.888649999999999718e-01 -3.431811000000000167e+00 -7.580729999999999968e-01 1.157900000000000075e-02 9.994779999999999776e-01 -8.378419999999999757e-01 -1.161526000000000058e+00 -3.268700000000000078e-02 2.648651000000000089e+00 -8.131939999999999724e-01 -1.300961000000000034e+00 -9.957150000000000167e-01 -9.680099999999999816e-02 1.743422999999999945e+00 -1.655551999999999913e+00 -5.455889999999999906e-01 1.433629000000000042e+00 1.128700999999999954e+00 4.331579999999999875e-01 9.992379999999999596e-01 2.306499999999999870e-02 3.830830000000000068e-01 4.223839999999999817e-01 -1.302372000000000085e+00 -1.129590000000000094e+00 -2.577809999999999824e-01 2.027220000000000133e-01 1.093137000000000025e+00 2.953698000000000157e+00
3.134699999999999986e-02 6.705250000000000377e-01 -5.735569999999999835e-01 -2.715600000000000236e-01 -1.577840000000000076e-01 8.984339999999999549e-01 -3.419920000000000182e-01 -1.820489000000000024e+00 4.006879999999999886e-01 1.717809999999999893e-01 3.895779999999999799e-01 -1.021198000000000050e+00 2.237429999999999974e-01 9.009409999999999918e-01 -5.417260000000000408e-01 1.528108000000000022e+00 -1.916839999999999933e-01 1.857360000000000122e-01 -1.737595000000000001e+00 -7.534830000000000139e-01 -1.445470999999999950e+00 -1.067188999999999943e+00 -6.621369999999999756e-01 -1.125523000000000051e+00 -5.627200000000000257e-02 7.077300000000000257e-02 1.243667000000000078e+00 -6.385680000000000245e-01 -1.162419999999999981e-01 8.217269999999999852e-01 -1.612180000000000002e-01 -1.068867000000000012e+00 -3.855480000000000018e-01 5.052259999999999529e-01 -8.459449999999999470e-01 9.685960000000000125e-01 1.138122999999999996e+00 -1.260628000000000082e+00 -1.098387000000000002e+00 1.571289999999999909e-01 -2.699355000000000171e+00 1.976987999999999968e+00 -7.932109999999999994e-01 1.714479999999999893e-01 8.915199999999999514e-02 7.602090000000000236e-01 4.977079999999999838e-01 -9.397699999999999942e-01 -1.173830000000000012e-01 1.059279999999999999e+00 -7.812729999999999952e-01 8.448729999999999851e-01 -1.048014999999999919e+00 -1.314613000000000032e+00 9.673680000000000057e-01 -2.101550000000000085e-01 -2.361934999999999896e+00 1.173742000000000063e+00 1.831490000000000062e-01 6.431289999999999507e-01 -6.640030000000000099e-01 1.554459000000000035e+00 -1.483669999999999989e-01 -1.932426999999999895e+00 7.368959999999999955e-01 -8.671830000000000371e-01 -8.251829999999999998e-01 -6.634879999999999667e-01 1.210353000000000012e+00 -8.975149999999999517e-01 2.813100000000000045e-01 -1.339385999999999965e+00 4.223740000000000272e-01 5.614139999999999686e-01 1.592062000000000088e+00 8.632119999999999793e-01 -1.312109999999999943e-01 2.219187999999999938e+00 -5.721420000000000394e-01 4.700369999999999826e-01 2.326759999999999939e-01 -6.952049999999999619e-01 2.441499999999999920e-02 -1.526720000000000022e-01 2.324400000000000077e-01 -1.251605000000000079e+00 -1.799449999999999938e-01 -4.738629999999999787e-01 -8.285499999999999809e-02 1.970485999999999960e+00 4.187179999999999791e-01 -5.442160000000000331e-01 5.672380000000000200e-01 -3.813699999999999729e-02 8.986110000000000486e-01 1.536410999999999971e+00 1.107237000000000027e+00 1.173149999999999915e+00 -7.235880000000000090e-01 2.832109999999999905e-01 3.954458999999999946e+00 1.167379999999999945e-01 4.546220000000000261e-01 -8.999300000000000355e-02 -1.673127000000000031e+00
1.142380000000000062e-01 -1.755060000000000064e+00 -3.798830000000000262e-01 -1.560184000000000015e+00 -5.889119999999999910e-01 4.474130000000000051e-01 4.129590000000000205e-01 -2.914519999999999889e-01 1.503440000000000054e-01 6.751150000000000206e-01 -1.029859000000000080e+00 8.020789999999999864e-01 -1.717589999999999950e-01 2.141773999999999845e+00 9.143289999999999473e-01 2.897939999999999960e-01 1.050181000000000031e+00 -1.580622999999999889e+00 -1.521525999999999934e+00 2.562440000000000273e-01 -3.565929999999999933e-01 -8.144050000000000455e-01 -1.283549999999999969e-01 -2.053672999999999860e+00 4.095019999999999771e-01 -5.467149999999999510e-01 -1.383329999999999949e+00 -1.065765000000000073e+00 8.812320000000000153e-01 1.160660000000000025e-01 5.883150000000000324e-01 -1.692723999999999895e+00 3.821669999999999789e-01 1.654170000000000085e-01 -5.975949999999999873e-01 6.512120000000000131e-01 -5.677699999999999969e-01 -1.952299999999999869e-01 1.575204000000000049e+00 6.001349999999999740e-01 1.009422000000000041e+00 -4.958319999999999950e-01 -9.945969999999999533e-01 1.112876999999999894e+00 1.395086000000000048e+00 -9.889449999999999630e-01 4.588700000000000001e-01 1.048227999999999938e+00 -9.012750000000000483e-01 7.731400000000000494e-01 -2.040373999999999910e+00 6.666480000000000183e-01 -1.329877999999999894e+00 -3.224850000000000216e-01 5.486309999999999798e-01 -8.877450000000000063e-01 8.812769999999999770e-01 2.841629999999999989e-01 1.591852000000000045e+00 -2.378810000000000091e-01 1.327866999999999909e+00 -2.873200000000000059e-02 -1.313374999999999959e+00 -2.069748999999999839e+00 -8.207360000000000211e-01 -2.075896000000000186e+00 8.922579999999999956e-01 -4.378290000000000237e-01 9.968069999999999986e-01 1.198358999999999952e+00 1.150479999999999975e-01 1.841450000000000031e-01 1.062378000000000045e+00 1.644060999999999995e+00 5.653660000000000352e-01 5.654249999999999554e-01 -1.555906000000000011e+00 -4.512660000000000005e-01 3.132179999999999964e-01 -1.397895000000000110e+00 2.237623000000000140e+00 -7.906050000000000022e-01 1.362970000000000015e+00 -8.657899999999999485e-01 1.309290999999999983e+00 9.869769999999999932e-01 1.804254999999999942e+00 -4.528399999999999787e-02 2.674329000000000178e+00 -1.129775999999999891e+00 1.407008000000000036e+00 -3.443060000000000009e-01 -1.483017999999999947e+00 1.173273999999999928e+00 -1.211689999999999934e+00 -8.436310000000000198e-01 -1.821892999999999985e+00 -2.171079999999999954e-01 3.862059999999999937e-01 2.188869999999999982e-01 -5.056059999999999999e-01 1.799125000000000085e+00 -9.091240000000000432e-01 -4.956430000000000002e-01 6.764919999999999822e-01
-1.328734000000000082e+00 6.197589999999999488e-01 9.494949999999999779e-01 5.565299999999999692e-01 7.976700000000000457e-02 6.415999999999999828e-03 -3.020769999999999844e-01 8.856789999999999941e-01 1.908120000000000094e-01 -2.965721999999999969e+00 1.060524000000000022e+00 3.104520000000000057e-01 3.883289999999999798e-01 1.011001999999999956e+00 -1.147529999999999939e-01 8.568120000000000180e-01 -1.555514999999999981e+00 -6.905999999999999917e-01 1.011594000000000104e+00 1.468740000000000046e-01 1.108670999999999962e+00 3.761689999999999756e-01 -1.046750999999999987e+00 1.058402999999999983e+00 -1.711680000000000090e+00 4.932449999999999890e-01 -6.439949999999999841e-01 8.912609999999999699e-01 1.377394999999999925e+00 8.046790000000000331e-01 8.172770000000000312e-01 3.574100000000000193e-02 1.529203000000000090e+00 -9.324789999999999468e-01 8.498480000000000478e-01 4.245800000000000268e-02 -5.004800000000000221e-02 -4.708049999999999735e-01 2.786290000000000155e+00 -2.496501999999999999e+00 2.063727000000000089e+00 9.159650000000000292e-01 -1.434312999999999949e+00 1.534790000000000043e-01 -1.087409999999999988e+00 -7.857500000000000595e-02 -5.140000000000000254e-04 -1.587610000000000132e-01 -6.248240000000000460e-01 -5.570299999999999585e+00 1.396050999999999931e+00 -2.215949999999999864e+00 1.745903999999999900e+00 4.435600000000000098e-01 6.180449999999999555e-01 1.889000000000000054e-03 -1.702158999999999978e+00 -1.945807999999999982e+00 8.001449999999999951e-01 -1.913167999999999980e+00 -5.319220000000000059e-01 -7.982700000000000351e-01 2.154031999999999947e+00 -5.481530000000000014e-01 1.233080000000000009e-01 -1.845337000000000005e+00 6.959370000000000278e-01 8.481999999999999956e-03 -2.111107000000000067e+00 3.469676999999999900e+00 -1.503781999999999952e+00 -1.628169999999999895e-01 8.135310000000000041e-01 -2.116268999999999956e+00 -8.180700000000000471e-02 -2.747548999999999797e+00 -6.491670000000000496e-01 2.571309999999999985e-01 1.804021000000000097e+00 -1.752013000000000043e+00 5.395799999999999902e-02 3.112590000000000079e-01 -9.532370000000000010e-01 -2.897889000000000159e+00 8.324270000000000280e-01 3.593640999999999863e+00 5.624900000000000455e-01 7.608479999999999688e-01 8.782379999999999631e-01 1.504530000000000034e-01 2.726018999999999970e+00 1.473668999999999896e+00 -8.688789999999999569e-01 -4.022000000000000401e-03 1.631307999999999980e+00 -2.073938000000000059e+00 -4.697709999999999941e-01 -1.940776999999999974e+00 9.039899999999999602e-01 1.292408000000000001e+00 -7.222239999999999771e-01 1.413078000000000056e+00 2.165986000000000189e+00 4.599899999999999822e-02 -6.849640000000000173e-01
3.138290000000000246e-01 -1.390560000000000129e-01 -1.821359999999999923e-01 1.207430000000000031e-01 -1.491419999999999968e-01 -2.434830000000000050e-01 3.564869999999999983e-01 -2.066840000000000066e-01 1.401209999999999956e-01 1.251999999999999988e-02 1.564339999999999897e-01 -7.679400000000000115e-02 1.100610000000000060e-01 -4.561899999999999983e-02 -3.415850000000000275e-01 1.782670000000000088e-01 -2.242730000000000001e-01 1.003239999999999965e-01 -2.369090000000000085e-01 -4.639399999999999774e-02 -8.453900000000000303e-02 1.900249999999999995e-01 -2.102410000000000112e-01 1.889119999999999966e-01 -3.114319999999999866e-01 9.193500000000000283e-02 -8.925600000000000200e-02 1.999680000000000069e-01 8.293300000000000671e-02 1.185599999999999987e-01 3.414070000000000160e-01 -1.031370000000000064e-01 -1.108780000000000043e-01 -9.133199999999999652e-02 -3.692389999999999839e-01 4.888580000000000148e-01 1.110865999999999909e+00 -5.045100000000000140e-01 4.328100000000000003e-02 -6.895300000000000040e-02 7.914699999999999513e-02 -2.618750000000000244e-01 -1.965679999999999927e-01 4.783850000000000047e-01 4.468809999999999727e-01 9.147450000000000303e-01 2.359999999999999945e-02 -9.954699999999999660e-02 1.265699999999999985e-02 -6.506699999999999984e-02 -4.259199999999999792e-02 1.028988999999999931e+00 -6.643100000000000394e-02 -5.493869999999999587e-01 -5.158099999999999907e-01 -7.134999999999999849e-03 -5.514299999999999757e-01 -2.863569999999999727e-01 -5.224600000000000077e-02 -7.058200000000000585e-02 -4.678629999999999733e-01 2.232079999999999897e-01 2.937049999999999939e-01 -4.832500000000000129e-01 6.833569999999999922e-01 2.054200000000000123e-02 -1.179769999999999985e-01 2.314460000000000128e-01 2.151419999999999999e-01 -3.769210000000000060e-01 -6.613820000000000254e-01 -5.355889999999999818e-01 -2.429900000000000115e-01 1.281760000000000121e-01 3.434189999999999743e-01 -3.124990000000000268e-01 -4.590810000000000168e-01 2.575470000000000259e-01 -5.386319999999999997e-01 5.093750000000000222e-01 4.256130000000000191e-01 1.262860000000000094e-01 3.884200000000000153e-02 -3.717369999999999841e-01 -2.016380000000000117e-01 5.291900000000000076e-02 -1.573390000000000066e-01 -9.405000000000000165e-03 4.706710000000000060e-01 7.378050000000000441e-01 -4.693330000000000002e-01 -2.315480000000000038e-01 -3.408309999999999951e-01 -8.997900000000000342e-02 8.868200000000000527e-01 3.538120000000000154e-01 7.552899999999999892e-02 2.534000000000000141e-02 2.527899999999999939e-02 1.110799999999999982e-01 -3.213079999999999825e-01 -1.119679999999999981e-01 -1.856099999999999972e-01 -3.000959999999999739e-01 2.174999999999999850e-02
2.782290000000000041e-01 -5.371179999999999843e-01 1.073245999999999922e+00 -3.040749999999999842e-01 -7.581470000000000153e-01 4.360550000000000259e-01 -2.035899999999999863e-02 2.309934999999999850e+00 1.734078000000000008e+00 1.348773999999999917e+00 -1.397809999999999997e+00 8.581999999999999629e-01 2.016246000000000205e+00 -5.182590000000000252e-01 1.842119999999999869e-01 1.090144999999999920e+00 2.476569999999999883e-01 2.913540000000000019e-01 -2.177506000000000164e+00 4.371360000000000245e-01 3.212789999999999813e-01 1.100174999999999903e+00 -6.670760000000000023e-01 -1.899836000000000080e+00 -1.017309000000000019e+00 -1.551470000000000071e-01 -9.206860000000000044e-01 -1.501640000000000086e+00 1.140330000000000066e+00 -2.081639999999999879e-01 -2.747629999999999795e-01 6.371639999999999526e-01 -6.183509999999999840e-01 -2.097850999999999910e+00 1.763029999999999875e-01 4.336459999999999759e-01 5.684510000000000396e-01 -4.753629999999999800e-01 5.321909999999999696e-01 -7.783160000000000078e-01 -1.889567999999999914e+00 5.767300000000000204e-02 -1.344811999999999896e+00 -6.764729999999999910e-01 2.280867999999999896e+00 1.156619000000000064e+00 8.851799999999999946e-02 4.149729999999999808e-01 -5.142619999999999969e-01 1.964869999999999894e+00 -1.866022999999999987e+00 2.439483000000000068e+00 4.981169999999999765e-01 3.448240000000000194e-01 1.394319000000000086e+00 -1.311824000000000101e+00 -1.670932000000000084e+00 1.349034999999999984e+00 -1.680669999999999942e-01 -1.668314999999999992e+00 4.122379999999999933e-01 -2.775757000000000030e+00 -5.199529999999999985e-01 -5.876399999999999679e-02 4.421970000000000067e-01 -1.028723000000000054e+00 -2.128750999999999838e+00 1.733972999999999987e+00 -1.283600999999999992e+00 1.142018999999999895e+00 -1.491406999999999927e+00 1.593110000000000082e-01 1.080943999999999905e+00 2.647439999999999793e-01 -2.043499999999999830e-02 -3.386149999999999993e-01 1.310040000000000093e-01 -6.900509999999999700e-01 5.542600000000000304e-02 3.667880000000000029e-01 2.742300999999999878e+00 -3.680410000000000070e-01 1.008356000000000030e+00 -1.125889999999999946e-01 -4.843529999999999780e-01 2.743929999999999980e-01 -1.875290000000000012e-01 1.088619999999999921e+00 7.099229999999999707e-01 -1.466880000000000128e-01 -1.888671999999999906e+00 -4.415859999999999785e-01 -7.934809999999999919e-01 8.742950000000000443e-01 7.791390000000000260e-01 -5.506599999999999689e-02 -7.797509999999999719e-01 -1.509230999999999989e+00 7.577939999999999676e-01 3.977789999999999937e-01 1.008733000000000102e+00 -6.202969999999999873e-01 -1.714955999999999925e+00 5.535529999999999617e-01 1.688714000000000048e+00
4.449020000000000197e-01 2.659940000000000082e-01 1.418987999999999916e+00 -1.586479999999999890e+00 -5.355640000000000400e-01 -8.179220000000000379e-01 -4.898489999999999789e-01 5.289179999999999993e-01 1.063566999999999929e+00 9.549699999999999855e-02 7.176670000000000549e-01 -2.461082000000000214e+00 -5.964869999999999894e-01 -1.920832000000000095e+00 -1.314162999999999970e+00 2.591300000000000270e-01 3.097116000000000202e+00 2.050342999999999805e+00 -1.310834000000000055e+00 -7.046970000000000178e-01 -2.654706000000000010e+00 7.349130000000000384e-01 -5.098510000000000542e-01 -1.289408000000000110e+00 1.521516000000000091e+00 -1.859232999999999913e+00 8.136280000000000179e-01 1.251522999999999941e+00 5.255130000000000079e-01 -2.529560000000000142e-01 -1.385165999999999897e+00 -9.962039999999999784e-01 -5.922300000000000342e-01 -3.243519999999999737e-01 -7.772809999999999997e-01 7.753449999999999509e-01 1.990107000000000070e+00 6.776290000000000369e-01 -1.096830999999999889e+00 -1.368740000000000068e+00 2.472084999999999866e+00 -4.164590000000000236e-01 -9.384409999999999696e-01 3.517270000000000119e-01 -5.469680000000000097e-01 4.622560000000000002e-01 -2.014450000000000129e-01 -4.802830000000000155e-01 5.638400000000000079e-01 -1.773790000000000089e-01 1.236353999999999953e+00 9.622760000000000202e-01 1.469954999999999901e+00 3.221120000000000094e-01 -2.292040000000000077e+00 -5.988069999999999782e-01 -3.541969999999999841e-01 5.511709999999999665e-01 -3.760479999999999934e-01 -9.280570000000000208e-01 -1.065819999999999990e+00 2.778772000000000020e+00 8.995370000000000310e-01 7.557589999999999586e-01 -5.084100000000000286e-01 2.180193000000000048e+00 1.164292000000000105e+00 1.881000000000000033e-02 5.317650000000000432e-01 -3.929440000000000155e-01 -4.278330000000000188e-01 9.952300000000000035e-02 3.763380000000000059e-01 -1.200277999999999956e+00 -1.476399999999999935e-02 2.421369999999999911e-01 2.192832000000000114e+00 1.766388999999999987e+00 1.675129999999999952e-01 1.478720000000000034e-01 -7.291649999999999521e-01 1.081290000000000084e+00 1.379742000000000024e+00 -1.149753999999999943e+00 7.817389999999999617e-01 -1.299049999999999927e-01 -1.290020000000000056e-01 1.706499999999999906e+00 -1.114524999999999988e+00 -1.399809999999999999e+00 -3.197794000000000025e+00 -1.422079000000000093e+00 -4.722040000000000126e-01 9.642450000000000188e-01 -1.469343999999999983e+00 1.155437999999999965e+00 1.945348999999999995e+00 -3.799560000000000159e-01 1.681745000000000045e+00 -1.390659000000000090e+00 -1.251878000000000046e+00 9.565780000000000394e-01 -1.682687999999999962e+00 -6.308400000000000118e-02 1.484570000000000056e-01
-1.091855999999999938e+00 4.778740000000000210e-01 -7.357660000000000311e-01 1.912399999999999864e-02 1.072456999999999994e+00 -1.825980000000000103e-01 5.974699999999999456e-01 -2.637741000000000113e+00 8.765999999999999487e-03 3.219069999999999987e-01 -1.931805999999999912e+00 1.991719999999999879e-01 -4.404060000000000197e-01 1.218283999999999923e+00 -5.244060000000000388e-01 8.855599999999999583e-02 -2.461569999999999869e-01 -7.886000000000000648e-03 -1.436925000000000008e+00 -2.775199999999999889e+00 1.290515999999999996e+00 -3.023199999999999846e-02 -1.411750000000000060e+00 3.543930000000000136e-01 1.911940000000000028e-01 4.070980000000000154e-01 6.617520000000000069e-01 9.335369999999999502e-01 -9.984300000000000119e-02 -2.737979999999999858e-01 -7.806819999999999871e-01 1.133819999999999967e-01 5.706970000000000098e-01 7.687910000000000021e-01 -6.666659999999999808e-01 3.094709999999999961e-01 8.958570000000000144e-01 3.668359999999999954e-01 -2.391400000000000123e-02 5.061890000000000001e-01 1.244328000000000101e+00 -2.989950000000000108e-01 7.038990000000000524e-01 -9.546660000000000146e-01 -5.533609999999999918e-01 -3.255410000000000248e-01 1.289493999999999918e+00 9.054440000000000266e-01 1.998722000000000110e+00 7.988260000000000360e-01 1.100199999999999963e-02 -6.825989999999999558e-01 7.962919999999999998e-01 -1.922899999999999957e-02 -6.036200000000000454e-01 1.657156999999999991e+00 -1.540383000000000058e+00 2.202299000000000007e+00 9.700119999999999854e-01 -1.239750000000000019e-01 -7.325949999999999962e-01 2.455259999999999942e-01 5.259380000000000166e-01 -3.241629999999999789e-01 -8.922099999999999476e-02 1.845134999999999970e+00 -8.515999999999999959e-02 -9.121070000000000011e-01 4.728999999999999697e-03 3.281589999999999785e-01 1.453451000000000048e+00 1.150498999999999938e+00 8.874239999999999906e-01 -5.211699999999999666e-02 -2.015099000000000196e+00 -1.171251999999999960e+00 8.278630000000000155e-01 -8.986979999999999968e-01 2.857899999999999885e-01 7.188870000000000537e-01 -1.089137999999999940e+00 -3.502310000000000145e-01 -1.283125000000000071e+00 -2.152578999999999798e+00 -4.863629999999999898e-01 -1.434193999999999969e+00 1.534248000000000056e+00 5.432719999999999771e-01 2.063271999999999995e+00 6.909340000000000481e-01 -4.975740000000000163e-01 2.098711000000000215e+00 -9.595920000000000005e-01 -1.400619999999999921e-01 -4.797060000000000213e-01 4.934479999999999977e-01 -8.912560000000000482e-01 -1.626003000000000087e+00 -1.119860000000000022e-01 -4.090400000000000147e-01 -2.162539999999999907e+00 -8.462840000000000362e-01 -7.926330000000000320e-01 9.430920000000000414e-01 1.801542999999999894e+00
2.255169999999999952e-01 -1.907345000000000068e+00 7.514910000000000201e-01 4.152080000000000215e-01 1.925729999999999942e-01 -1.844859000000000027e+00 -1.183749999999999941e-01 -7.618789999999999729e-01 1.820985999999999994e+00 -5.815129999999999466e-01 -4.855059999999999931e-01 3.797909999999999897e-01 1.051217999999999986e+00 3.319710000000000161e-01 -2.631530000000000258e-01 1.109890000000000043e-01 -5.945009999999999462e-01 -1.576480000000000103e-01 3.556999999999999832e-03 2.262075999999999976e+00 1.301072999999999924e+00 -2.191740000000000077e-01 -8.980660000000000309e-01 -1.763109000000000037e+00 1.920827999999999980e+00 1.982841000000000076e+00 1.713368000000000002e+00 -9.971870000000000456e-01 7.501060000000000505e-01 6.170940000000000314e-01 -3.368940000000000268e-01 4.805329999999999879e-01 -7.588449999999999918e-01 1.109600000000000031e-01 8.391060000000000185e-01 1.292664000000000035e+00 1.443540000000000101e-01 -1.096692000000000000e+00 1.397539999999999893e-01 7.218090000000000339e-01 6.698469999999999702e-01 1.238920000000000021e-01 -1.023341999999999974e+00 6.976609999999999756e-01 8.127240000000000020e-01 1.546510000000000051e+00 2.956409999999999871e-01 6.995130000000000514e-01 1.051085999999999965e+00 8.012890000000000290e-01 -5.735179999999999723e-01 -1.287061999999999928e+00 -5.817710000000000381e-01 -1.062480000000000091e+00 2.526536000000000115e+00 -4.114479999999999804e-01 -1.364848999999999979e+00 -4.314709999999999934e-01 3.474360000000000226e-01 -4.942340000000000066e-01 -7.877100000000000213e-01 1.675199999999999953e-02 3.378500000000000253e-02 6.358700000000000463e-02 1.730202999999999935e+00 -2.723488999999999827e+00 -1.397162000000000015e+00 -1.405389999999999917e+00 1.206974999999999909e+00 9.564479999999999649e-01 5.996639999999999748e-01 5.731169999999999876e-01 -1.026157999999999904e+00 -7.053070000000000173e-01 -1.546237000000000084e+00 2.517559999999999798e-01 5.330549999999999455e-01 5.699589999999999934e-01 -1.024669999999999970e+00 -1.494926999999999895e+00 2.395255000000000134e+00 -2.546231999999999829e+00 -2.120609999999999995e-01 -1.626511999999999958e+00 1.394476999999999967e+00 9.674730000000000274e-01 1.085185999999999984e+00 8.387050000000000338e-01 6.904479999999999507e-01 2.379660000000000108e-01 1.263006000000000073e+00 -1.630713999999999997e+00 -1.344540000000000068e+00 2.522670000000000190e-01 -5.369230000000000391e-01 6.980800000000000338e-01 -5.225610000000000532e-01 1.357834999999999903e+00 6.186359999999999637e-01 -2.471883000000000052e+00 -8.762569999999999526e-01 -5.907930000000000126e-01 -7.742699999999999583e-02 -1.947724999999999929e+00 -9.570429999999999771e-01