1.754920000000000035e+00 9.684000000000000385e-01 4.466099999999999959e+00 1.499989999999999934e+00 9.917500000000000204e-01 9.531290000000000262e+00 7.086000000000000631e-02 3.669509999999999827e+00 4.418779999999999930e+00 -1.336199999999999888e-01 3.720000000000000195e+00 9.416520000000000223e+00 4.302299999999999791e+00 2.114860000000000184e+00 4.858220000000000205e+00 4.633359999999999701e+00 1.000869999999999926e+00 9.744320000000000093e+00 3.101750000000000007e+00 4.518329999999999735e+00 4.058480000000000310e+00 3.032700000000000173e+00 3.734490000000000087e+00 9.499620000000000175e+00 9.780000000000000498e-03 1.715689999999999937e+00 1.793609999999999927e+00 -4.095000000000000029e-02 1.911289999999999933e+00 7.077569999999999695e+00 -1.666870000000000074e+00 4.280680000000000263e+00 1.825630000000000086e+00 -1.612819999999999920e+00 4.629800000000000360e+00 6.945660000000000167e+00 3.122149999999999981e+00 1.708159999999999901e+00 1.847639999999999949e+00 3.026229999999999976e+00 1.908490000000000020e+00 7.305320000000000036e+00 1.453869999999999996e+00 4.231230000000000047e+00 1.687650000000000095e+00 1.543199999999999905e+00 4.637749999999999595e+00 7.010500000000000398e+00 4.763989999999999725e+00 6.725799999999999557e-01 1.719000000000000083e+00 1.472159999999999913e+00 9.587999999999999856e-01 7.663999999999999702e+00 -7.148000000000000187e-02 3.505539999999999878e+00 2.514819999999999833e+00 -4.726999999999999952e-02 3.719460000000000210e+00 7.526410000000000267e+00 1.088349999999999929e+00 5.214800000000000546e-01 2.769670000000000076e+00 4.671299999999999564e+00 1.027840000000000087e+00 7.664990000000000414e+00 2.963960000000000150e+00 3.501549999999999940e+00 2.505619999999999958e+00 3.098079999999999945e+00 3.759889999999999954e+00 7.662189999999999834e+00 -1.558599999999999985e-01 1.946390000000000065e+00 5.121089999999999698e+00 -1.210999999999999924e-02 1.996019999999999905e+00 1.003734999999999999e+01 -1.566489999999999938e+00 4.467089999999999783e+00 5.011009999999999742e+00 -1.693410000000000082e+00 4.642890000000000406e+00 1.014464000000000077e+01 2.638100000000000112e+00 2.208819999999999784e+00 5.560089999999999755e+00 3.003779999999999895e+00 1.961079999999999934e+00 1.010843000000000025e+01 1.511700000000000044e+00 4.619919999999999582e+00 5.065229999999999677e+00 1.425450000000000106e+00 4.516169999999999796e+00 1.000684000000000040e+01 3.512500000000000178e+00 1.101350000000000051e+00 3.620239999999999903e+00
1.347150000000000070e+00 8.960200000000000387e-01 4.501559999999999562e+00 1.429400000000000004e+00 8.407299999999999773e-01 9.618410000000000792e+00 -1.621799999999999908e-01 3.517119999999999802e+00 4.567700000000000315e+00 -2.314799999999999913e-01 3.594300000000000050e+00 9.600910000000000721e+00 4.432299999999999685e+00 8.397000000000000020e-01 5.268309999999999604e+00 4.485879999999999868e+00 9.081299999999999928e-01 9.806419999999999249e+00 2.999960000000000182e+00 3.540579999999999838e+00 4.596110000000000362e+00 2.953339999999999854e+00 3.597430000000000128e+00 9.622120000000000672e+00 7.778000000000000191e-02 1.872949999999999893e+00 1.695000000000000062e+00 -1.692200000000000093e-01 1.772969999999999935e+00 7.195800000000000196e+00 -1.635369999999999990e+00 4.416540000000000354e+00 1.956399999999999917e+00 -1.726960000000000051e+00 4.494390000000000107e+00 7.079430000000000334e+00 3.064900000000000180e+00 1.824659999999999949e+00 1.814910000000000023e+00 2.921489999999999920e+00 1.809160000000000101e+00 7.262909999999999755e+00 1.536869999999999958e+00 4.370049999999999990e+00 1.737900000000000000e+00 1.390689999999999982e+00 4.400350000000000428e+00 7.216510000000000424e+00 4.786889999999999645e+00 8.895199999999999774e-01 1.539439999999999920e+00 1.383420000000000094e+00 8.634600000000000053e-01 7.759179999999999744e+00 -2.716000000000000011e-02 3.573300000000000143e+00 2.527249999999999996e+00 -2.343500000000000028e-01 3.580929999999999946e+00 7.704720000000000013e+00 1.451070000000000082e+00 8.583499999999999464e-01 2.529980000000000118e+00 4.497200000000000308e+00 8.867000000000000437e-01 7.602680000000000327e+00 3.033689999999999998e+00 3.585100000000000176e+00 2.567660000000000053e+00 2.993119999999999781e+00 3.610219999999999985e+00 7.750790000000000290e+00 -1.743999999999999995e-01 1.750329999999999941e+00 5.258720000000000283e+00 -7.864000000000000157e-02 1.820999999999999952e+00 1.003702999999999967e+01 -1.716869999999999896e+00 4.467150000000000176e+00 5.124500000000000277e+00 -1.580179999999999918e+00 4.446060000000000123e+00 3.175000000000000044e-02 2.804949999999999832e+00 1.878160000000000052e+00 5.377189999999999692e+00 2.853569999999999940e+00 1.859180000000000055e+00 1.012382000000000026e+01 1.376989999999999936e+00 4.380379999999999718e+00 5.320579999999999643e+00 1.354109999999999925e+00 4.397789999999999644e+00 1.007710999999999935e+01 3.917539999999999800e+00 7.249400000000000288e-01 3.529790000000000205e+00
1.892169999999999908e+00 7.521999999999999797e-01 4.289970000000000283e+00 1.289849999999999941e+00 8.270600000000000174e-01 9.434290000000000731e+00 -2.549999999999999836e-02 3.463099999999999845e+00 4.344350000000000378e+00 -2.882000000000000117e-01 3.536529999999999951e+00 9.291270000000000806e+00 4.111909999999999954e+00 2.263180000000000192e+00 4.975229999999999819e+00 4.394779999999999909e+00 9.245299999999999629e-01 9.568699999999999761e+00 2.913159999999999972e+00 4.425139999999999851e+00 4.030020000000000380e+00 2.861180000000000057e+00 3.575790000000000024e+00 9.374859999999999971e+00 6.823999999999999511e-02 1.713999999999999968e+00 1.743730000000000002e+00 -2.904800000000000160e-01 1.716690000000000049e+00 7.033590000000000231e+00 -1.585939999999999905e+00 4.257749999999999702e+00 1.832179999999999920e+00 -1.855129999999999946e+00 4.418449999999999989e+00 6.835329999999999906e+00 3.076130000000000031e+00 1.727729999999999988e+00 1.838750000000000107e+00 2.764530000000000154e+00 1.728620000000000045e+00 7.292139999999999844e+00 1.465030000000000054e+00 4.227269999999999861e+00 1.682080000000000020e+00 1.257579999999999920e+00 4.418619999999999770e+00 6.943100000000000271e+00 4.744439999999999991e+00 7.626500000000000501e-01 1.724280000000000035e+00 1.218660000000000077e+00 7.982399999999999496e-01 7.597129999999999939e+00 -3.801999999999999824e-02 3.429330000000000211e+00 2.477040000000000131e+00 -3.180899999999999839e-01 3.540340000000000042e+00 7.430530000000000079e+00 1.435619999999999896e+00 7.129100000000000437e-01 2.492010000000000058e+00 4.360640000000000072e+00 8.804800000000000404e-01 7.533769999999999634e+00 3.008610000000000007e+00 3.530050000000000132e+00 2.472090000000000121e+00 2.853530000000000122e+00 3.566349999999999909e+00 7.528929999999999900e+00 -3.792900000000000160e-01 1.780720000000000081e+00 5.053300000000000125e+00 -2.070200000000000096e-01 1.820940000000000003e+00 9.894940000000000069e+00 -1.739589999999999970e+00 4.206959999999999589e+00 4.939700000000000202e+00 -1.550610000000000044e+00 4.276670000000000194e+00 6.620000000000000016e-03 2.422820000000000196e+00 2.000910000000000188e+00 5.475979999999999848e+00 2.773260000000000058e+00 1.817290000000000072e+00 9.891759999999999664e+00 1.400830000000000020e+00 4.464319999999999844e+00 5.015539999999999665e+00 1.263689999999999980e+00 4.346210000000000129e+00 9.881830000000000780e+00 3.709389999999999965e+00 1.066740000000000022e+00 3.724860000000000060e+00
1.721859999999999946e+00 7.366700000000000470e-01 5.342120000000000424e+00 1.869240000000000013e+00 8.434700000000000530e-01 1.035022000000000020e+01 -9.098000000000000531e-02 3.565650000000000208e+00 4.871249999999999858e+00 1.122500000000000026e-01 3.660109999999999975e+00 9.948010000000000019e+00 4.624530000000000030e+00 8.348499999999999810e-01 4.686420000000000030e+00 4.794410000000000061e+00 7.283199999999999674e-01 9.747019999999999129e+00 3.071289999999999853e+00 3.635240000000000027e+00 4.620949999999999669e+00 3.242059999999999942e+00 3.544810000000000016e+00 9.930949999999999278e+00 2.783000000000000057e-02 1.853590000000000071e+00 1.782019999999999937e+00 1.591700000000000059e-01 1.658949999999999925e+00 7.489480000000000359e+00 -1.606270000000000087e+00 4.584740000000000038e+00 1.791970000000000063e+00 -1.335480000000000000e+00 4.317199999999999704e+00 7.538179999999999659e+00 3.338270000000000071e+00 1.938909999999999911e+00 1.917620000000000102e+00 3.339949999999999974e+00 1.663910000000000000e+00 7.190710000000000157e+00 1.389960000000000084e+00 4.538219999999999921e+00 2.071110000000000007e+00 1.783360000000000056e+00 4.375750000000000028e+00 7.319449999999999790e+00 4.668590000000000018e+00 9.770100000000000451e-01 2.674819999999999975e+00 1.702919999999999989e+00 7.350700000000000012e-01 7.516869999999999941e+00 -1.978999999999999926e-01 3.633830000000000116e+00 2.546339999999999826e+00 2.899399999999999755e-01 3.493440000000000101e+00 8.039239999999999498e+00 1.549369999999999914e+00 9.941299999999999581e-01 1.691899999999999959e+00 4.851049999999999862e+00 6.752099999999999769e-01 7.787119999999999820e+00 3.059709999999999930e+00 3.642809999999999881e+00 2.574539999999999829e+00 3.224520000000000053e+00 3.415639999999999787e+00 7.904209999999999958e+00 1.113699999999999968e-01 1.583779999999999966e+00 5.346820000000000128e+00 1.497799999999999965e-01 1.770639999999999992e+00 1.021651999999999916e+01 -1.451810000000000045e+00 4.281189999999999607e+00 5.648060000000000080e+00 -1.433720000000000105e+00 4.535859999999999559e+00 1.026143000000000072e+01 3.233719999999999928e+00 1.766929999999999890e+00 5.345229999999999926e+00 3.141739999999999977e+00 1.822359999999999980e+00 4.202999999999999792e-02 1.579280000000000017e+00 4.483740000000000059e+00 5.212279999999999802e+00 1.457840000000000025e+00 4.481889999999999930e+00 2.755000000000000157e-02 1.318940000000000001e+00 1.249299999999999994e-01 3.751279999999999948e+00
1.513509999999999911e+00 8.607399999999999496e-01 4.410510000000000375e+00 9.543800000000000061e-01 8.174900000000000500e-01 9.450189999999999202e+00 -3.267900000000000249e-01 3.572519999999999918e+00 4.588870000000000005e+00 -6.986200000000000188e-01 3.423830000000000151e+00 9.250069999999999126e+00 4.167390000000000150e+00 2.011039999999999939e+00 5.221989999999999910e+00 4.308810000000000251e+00 8.682800000000000518e-01 9.722500000000000142e+00 2.639720000000000066e+00 3.701299999999999812e+00 4.246389999999999887e+00 2.601220000000000088e+00 3.592299999999999827e+00 9.657849999999999824e+00 9.120999999999999941e-02 1.705279999999999907e+00 1.869850000000000012e+00 -5.281599999999999628e-01 1.637760000000000105e+00 6.838059999999999583e+00 -1.785199999999999898e+00 4.229110000000000369e+00 1.865909999999999958e+00 -2.193340000000000067e+00 4.496749999999999581e+00 6.902330000000000076e+00 3.092280000000000140e+00 1.566019999999999968e+00 1.813020000000000076e+00 2.584179999999999922e+00 1.866179999999999950e+00 7.431160000000000210e+00 1.337919999999999998e+00 4.265559999999999796e+00 1.608630000000000004e+00 9.270599999999999952e-01 4.540939999999999976e+00 7.106740000000000279e+00 4.807730000000000281e+00 6.921800000000000175e-01 1.823150000000000048e+00 9.655599999999999739e-01 8.996399999999999952e-01 7.565590000000000259e+00 -1.318900000000000072e-01 3.508919999999999817e+00 2.623580000000000023e+00 -6.460200000000000387e-01 3.546489999999999920e+00 7.368210000000000370e+00 1.323039999999999994e+00 7.215099999999999847e-01 2.582990000000000119e+00 4.242930000000000312e+00 9.559800000000000519e-01 7.610719999999999708e+00 2.857270000000000199e+00 3.459410000000000096e+00 2.405780000000000030e+00 2.581840000000000135e+00 3.887539999999999996e+00 7.659150000000000347e+00 -3.424800000000000066e-01 1.640970000000000040e+00 4.911660000000000359e+00 -5.440099999999999936e-01 1.711889999999999912e+00 9.889540000000000219e+00 -2.108369999999999855e+00 4.016040000000000276e+00 5.013320000000000221e+00 -1.468229999999999924e+00 4.306770000000000209e+00 4.069999999999999833e-03 2.368679999999999897e+00 2.278399999999999981e+00 5.496999999999999886e+00 2.566580000000000084e+00 1.735249999999999959e+00 9.847870000000000346e+00 1.301020000000000065e+00 4.406869999999999621e+00 5.174730000000000274e+00 8.531900000000000039e-01 4.290670000000000428e+00 9.871040000000000703e+00 3.565269999999999939e+00 1.126980000000000093e+00 3.723160000000000025e+00
1.281949999999999923e+00 9.467600000000000460e-01 4.583800000000000097e+00 1.268150000000000110e+00 9.512500000000000400e-01 9.658960000000000434e+00 -2.323300000000000087e-01 3.609980000000000189e+00 4.547030000000000349e+00 -3.295000000000000151e-01 3.720769999999999911e+00 9.602990000000000137e+00 4.303630000000000067e+00 1.024809999999999999e+00 5.298689999999999678e+00 4.406539999999999679e+00 9.833600000000000119e-01 9.870340000000000558e+00 2.875999999999999890e+00 3.655219999999999914e+00 4.533909999999999663e+00 2.860110000000000152e+00 3.638889999999999958e+00 9.643980000000000885e+00 6.822000000000000286e-02 1.841909999999999936e+00 1.760410000000000030e+00 -2.414399999999999880e-01 1.902169999999999916e+00 7.185870000000000424e+00 -1.626279999999999948e+00 4.472649999999999793e+00 1.939659999999999940e+00 -1.823779999999999957e+00 4.531659999999999577e+00 7.029069999999999929e+00 3.064779999999999838e+00 1.761710000000000109e+00 1.805690000000000017e+00 2.732079999999999842e+00 1.907350000000000101e+00 7.259170000000000122e+00 1.539209999999999967e+00 4.280520000000000103e+00 1.740110000000000046e+00 1.278599999999999959e+00 4.566939999999999777e+00 7.227289999999999992e+00 4.822210000000000107e+00 7.526899999999999702e-01 1.571569999999999911e+00 1.230830000000000091e+00 9.283000000000000140e-01 7.766569999999999752e+00 -6.317000000000000393e-02 3.585890000000000022e+00 2.574920000000000098e+00 -2.892899999999999916e-01 3.684829999999999828e+00 7.730559999999999654e+00 1.452490000000000059e+00 9.022999999999999909e-01 2.569529999999999870e+00 4.350629999999999775e+00 1.012820000000000054e+00 7.547609999999999708e+00 3.030780000000000030e+00 3.546129999999999782e+00 2.575019999999999865e+00 2.855090000000000128e+00 3.676699999999999857e+00 7.763589999999999769e+00 -2.708200000000000052e-01 1.883490000000000109e+00 5.230010000000000048e+00 -2.119099999999999873e-01 1.983389999999999986e+00 1.013604999999999912e+01 -1.773470000000000102e+00 4.570560000000000400e+00 5.133689999999999642e+00 -1.557790000000000008e+00 4.418809999999999683e+00 2.085000000000000048e-02 2.658440000000000136e+00 1.962469999999999937e+00 5.397009999999999863e+00 2.759630000000000027e+00 1.883529999999999927e+00 1.015300000000000047e+01 1.304119999999999946e+00 4.497340000000000337e+00 5.266060000000000407e+00 1.262429999999999941e+00 4.461100000000000065e+00 1.011271999999999949e+01 3.952150000000000052e+00 1.089800000000000102e+00 3.533450000000000202e+00
1.413990000000000080e+00 8.250100000000000211e-01 4.525710000000000122e+00 1.380339999999999900e+00 9.406099999999999461e-01 9.540070000000000050e+00 -4.184999999999999831e-02 3.499589999999999979e+00 4.432879999999999932e+00 -1.842399999999999871e-01 3.778929999999999900e+00 9.558780000000000499e+00 4.476420000000000066e+00 7.658399999999999652e-01 5.205930000000000391e+00 4.473180000000000156e+00 9.575200000000000378e-01 9.699400000000000688e+00 3.054549999999999876e+00 3.558829999999999938e+00 4.657000000000000028e+00 3.081039999999999779e+00 3.716639999999999944e+00 9.607920000000000016e+00 -1.801000000000000170e-02 1.923389999999999933e+00 1.644709999999999894e+00 1.430000000000000064e-03 1.865369999999999973e+00 7.243100000000000094e+00 -1.484199999999999964e+00 4.578689999999999927e+00 2.030740000000000212e+00 -1.586719999999999908e+00 4.605299999999999727e+00 7.091029999999999944e+00 2.875659999999999883e+00 2.020169999999999799e+00 1.766199999999999992e+00 2.911160000000000192e+00 1.824359999999999982e+00 7.175010000000000332e+00 1.622779999999999889e+00 4.622690000000000410e+00 1.907110000000000083e+00 1.608800000000000008e+00 4.493009999999999948e+00 7.160339999999999705e+00 4.520450000000000301e+00 1.047169999999999934e+00 1.399440000000000017e+00 1.480280000000000040e+00 8.636099999999999888e-01 7.677640000000000242e+00 -7.266000000000000236e-02 3.583429999999999893e+00 2.566019999999999968e+00 -8.350000000000000477e-02 3.715510000000000090e+00 7.720810000000000173e+00 1.508049999999999891e+00 9.647299999999999764e-01 2.538510000000000044e+00 4.572969999999999757e+00 1.007239999999999913e+00 7.428399999999999892e+00 3.061990000000000212e+00 3.687240000000000073e+00 2.767749999999999932e+00 3.109179999999999833e+00 3.621669999999999945e+00 7.694329999999999892e+00 -6.296999999999999820e-02 1.663280000000000092e+00 5.188250000000000028e+00 -1.360000000000000098e-01 1.967440000000000078e+00 9.857530000000000570e+00 -1.503460000000000019e+00 4.410709999999999908e+00 5.190330000000000332e+00 -1.519779999999999909e+00 4.542749999999999844e+00 1.656600000000000017e-01 2.935550000000000104e+00 1.711710000000000065e+00 5.249450000000000394e+00 2.791859999999999786e+00 1.982150000000000079e+00 1.006785999999999959e+01 1.496289999999999898e+00 4.296319999999999695e+00 5.308419999999999916e+00 1.435759999999999925e+00 4.442929999999999602e+00 9.956329999999999458e+00 4.533949999999999925e+00 4.181699999999999862e-01 3.495150000000000201e+00
1.651240000000000041e+00 1.072210000000000107e+00 4.452709999999999724e+00 1.435349999999999904e+00 1.137809999999999988e+00 9.627560000000000784e+00 -2.069000000000000006e-02 3.745190000000000019e+00 4.478979999999999961e+00 -1.224800000000000055e-01 3.901520000000000099e+00 9.546160000000000423e+00 4.501409999999999911e+00 1.039970000000000061e+00 5.131199999999999761e+00 4.555930000000000035e+00 1.109960000000000058e+00 9.850989999999999469e+00 3.064099999999999824e+00 3.688410000000000188e+00 4.617969999999999686e+00 3.069259999999999877e+00 3.805320000000000036e+00 9.656109999999999971e+00 8.569999999999999493e-03 1.932169999999999943e+00 1.667170000000000041e+00 -1.619999999999999912e-02 2.063390000000000057e+00 7.084660000000000402e+00 -1.689489999999999936e+00 4.439300000000000246e+00 1.909080000000000110e+00 -1.595450000000000035e+00 4.721729999999999983e+00 6.995289999999999786e+00 3.049329999999999874e+00 1.815369999999999928e+00 1.829260000000000108e+00 3.056890000000000107e+00 2.001139999999999919e+00 7.310039999999999871e+00 1.522129999999999983e+00 4.302319999999999922e+00 1.788419999999999899e+00 1.537290000000000045e+00 4.539150000000000240e+00 7.211990000000000123e+00 4.710079999999999600e+00 8.664300000000000335e-01 1.640039999999999942e+00 1.451370000000000049e+00 1.130949999999999900e+00 7.731600000000000250e+00 -1.005700000000000066e-01 3.619040000000000035e+00 2.514499999999999957e+00 -5.469999999999999862e-02 3.849499999999999922e+00 7.654650000000000176e+00 1.372470000000000079e+00 9.071399999999999464e-01 2.324590000000000156e+00 4.665910000000000224e+00 1.044950000000000045e+00 7.697940000000000005e+00 2.992010000000000058e+00 3.574520000000000142e+00 2.666040000000000187e+00 3.093809999999999949e+00 3.834709999999999841e+00 7.780899999999999928e+00 2.300000000000000070e-04 1.862270000000000092e+00 5.137310000000000265e+00 -6.977999999999999481e-02 2.139429999999999943e+00 1.002955000000000041e+01 -1.561350000000000016e+00 4.644870000000000054e+00 5.120549999999999713e+00 -1.581720000000000015e+00 4.436329999999999885e+00 2.445999999999999910e-02 2.949850000000000083e+00 2.075110000000000010e+00 5.482730000000000103e+00 2.936350000000000016e+00 2.034019999999999939e+00 1.012471000000000032e+01 1.537660000000000027e+00 4.482420000000000293e+00 5.315260000000000318e+00 1.468639999999999946e+00 4.555880000000000152e+00 1.021086999999999989e+01 3.514100000000000001e+00 7.113899999999999668e-01 3.598259999999999792e+00
1.481060000000000043e+00 1.632589999999999986e+00 4.713309999999999889e+00 1.822079999999999922e+00 1.828240000000000087e+00 9.644569999999999865e+00 9.972999999999999921e-02 4.373680000000000234e+00 5.358259999999999579e+00 8.869999999999999413e-03 4.344009999999999927e+00 9.940250000000000696e+00 4.712119999999999642e+00 1.681440000000000046e+00 4.901769999999999960e+00 4.868459999999999788e+00 1.677359999999999962e+00 9.739910000000000068e+00 3.197970000000000201e+00 4.458199999999999719e+00 4.680439999999999934e+00 3.384279999999999955e+00 4.569619999999999571e+00 9.822179999999999467e+00 1.483299999999999896e-01 1.617939999999999934e+00 1.773060000000000080e+00 5.977999999999999980e-02 2.511629999999999807e+00 7.334810000000000052e+00 -1.602149999999999963e+00 4.758630000000000138e+00 1.798000000000000043e+00 -1.532019999999999937e+00 5.460250000000000270e+00 7.241130000000000067e+00 3.175590000000000135e+00 2.028999999999999915e+00 1.997859999999999969e+00 3.291900000000000048e+00 2.728439999999999976e+00 7.444980000000000153e+00 1.515840000000000076e+00 4.768099999999999561e+00 1.779800000000000049e+00 1.673720000000000097e+00 5.411249999999999893e+00 7.574900000000000411e+00 4.626979999999999649e+00 9.816799999999999971e-01 2.439960000000000129e+00 1.769099999999999895e+00 1.778520000000000101e+00 7.808230000000000004e+00 3.921000000000000180e-02 3.511270000000000113e+00 1.421650000000000080e+00 -8.080000000000000376e-03 4.425250000000000128e+00 7.519529999999999603e+00 1.563690000000000024e+00 1.156979999999999897e+00 2.698920000000000208e+00 4.840589999999999726e+00 1.724010000000000042e+00 7.994320000000000093e+00 3.149230000000000196e+00 3.902730000000000032e+00 2.536360000000000170e+00 3.345450000000000035e+00 4.570520000000000138e+00 7.732289999999999885e+00 -7.513000000000000234e-02 2.539159999999999862e+00 5.363159999999999705e+00 1.596799999999999886e-01 2.390400000000000080e+00 1.017941000000000074e+01 -1.585069999999999979e+00 5.437839999999999563e+00 5.194420000000000037e+00 -1.380039999999999933e+00 5.589310000000000223e+00 1.025403000000000020e+01 3.262739999999999974e+00 2.481380000000000141e+00 5.295040000000000191e+00 3.425489999999999924e+00 2.796889999999999876e+00 1.036153000000000013e+01 1.666199999999999903e+00 5.394339999999999691e+00 5.259030000000000094e+00 1.702649999999999997e+00 5.431709999999999816e+00 9.996439999999999770e+00 8.845000000000000084e-02 4.429809999999999803e+00 3.592070000000000096e+00
1.519500000000000073e+00 9.358899999999999997e-01 4.456470000000000375e+00 1.447540000000000049e+00 8.734699999999999687e-01 9.557650000000000645e+00 -3.491999999999999965e-02 3.491309999999999913e+00 4.459369999999999834e+00 -1.680999999999999994e-01 3.594990000000000130e+00 9.465889999999999915e+00 4.375890000000000057e+00 9.468499999999999694e-01 5.169459999999999944e+00 4.487800000000000011e+00 9.589199999999999946e-01 9.743410000000000792e+00 2.946400000000000130e+00 3.661610000000000031e+00 4.489429999999999588e+00 2.972220000000000084e+00 3.610850000000000115e+00 9.551130000000000564e+00 2.911000000000000046e-02 1.845979999999999954e+00 1.677100000000000035e+00 2.435000000000000012e-02 1.798629999999999951e+00 7.040300000000000225e+00 -1.623860000000000081e+00 4.365929999999999644e+00 1.892309999999999937e+00 -1.567830000000000057e+00 4.416579999999999728e+00 6.913940000000000197e+00 2.970950000000000202e+00 1.711230000000000029e+00 1.866749999999999909e+00 2.904459999999999820e+00 1.863920000000000021e+00 7.283640000000000114e+00 1.468569999999999931e+00 4.183139999999999858e+00 1.666209999999999969e+00 1.446490000000000054e+00 4.505729999999999791e+00 7.206669999999999909e+00 4.676680000000000170e+00 7.538099999999999801e-01 1.567399999999999904e+00 1.443480000000000096e+00 7.948699999999999655e-01 7.708770000000000344e+00 -6.572999999999999676e-02 3.492170000000000218e+00 2.552189999999999959e+00 -4.657000000000000028e-02 3.569980000000000153e+00 7.629340000000000011e+00 1.346270000000000078e+00 8.744199999999999751e-01 2.459220000000000184e+00 4.524899999999999700e+00 9.941299999999999581e-01 7.617740000000000400e+00 2.931169999999999831e+00 3.533119999999999816e+00 2.567889999999999784e+00 2.995899999999999785e+00 3.681449999999999889e+00 7.708319999999999617e+00 -5.122000000000000164e-02 1.739579999999999904e+00 5.185889999999999667e+00 -7.969999999999999654e-03 1.882470000000000088e+00 9.990399999999999281e+00 -1.528149999999999897e+00 4.437850000000000072e+00 5.060830000000000162e+00 -1.562680000000000069e+00 4.366760000000000197e+00 3.466000000000000331e-02 2.787580000000000169e+00 1.974010000000000042e+00 5.462489999999999846e+00 2.881069999999999798e+00 1.869899999999999896e+00 1.011735999999999969e+01 1.471349999999999936e+00 4.374430000000000263e+00 5.247939999999999827e+00 1.378309999999999924e+00 4.398959999999999759e+00 9.963039999999999452e+00 3.625609999999999999e+00 8.105900000000000327e-01 3.529490000000000016e+00
1.531300000000000106e+00 1.147119999999999918e+00 4.480730000000000324e+00 1.608190000000000008e+00 1.172900000000000054e+00 9.680389999999999162e+00 -7.312000000000000444e-02 4.051730000000000054e+00 4.449770000000000003e+00 -6.028000000000000025e-02 3.841349999999999820e+00 9.693149999999999267e+00 4.285339999999999705e+00 1.931820000000000093e+00 4.724120000000000097e+00 4.708400000000000141e+00 9.895399999999999752e-01 9.824360000000000426e+00 3.069990000000000219e+00 4.315489999999999604e+00 4.232249999999999623e+00 3.244699999999999918e+00 3.816159999999999997e+00 9.644170000000000798e+00 6.199999999999999999e-04 1.770259999999999945e+00 1.882090000000000041e+00 -1.586999999999999869e-02 1.943859999999999921e+00 7.105439999999999756e+00 -1.722509999999999986e+00 4.351359999999999673e+00 1.932520000000000016e+00 -1.535730000000000040e+00 4.678279999999999994e+00 7.065549999999999997e+00 3.159209999999999852e+00 1.633529999999999927e+00 1.874479999999999924e+00 3.063740000000000130e+00 2.020649999999999835e+00 7.392719999999999736e+00 1.445759999999999934e+00 4.309580000000000410e+00 1.640419999999999989e+00 1.426700000000000079e+00 4.621760000000000090e+00 7.186320000000000263e+00 4.758350000000000080e+00 7.125399999999999512e-01 1.700739999999999919e+00 1.541039999999999965e+00 1.063260000000000094e+00 7.782079999999999664e+00 -1.648100000000000120e-01 3.542209999999999859e+00 2.480869999999999909e+00 -6.308999999999999331e-02 3.784819999999999851e+00 7.757920000000000371e+00 8.866500000000000492e-01 4.542200000000000126e-01 2.899150000000000116e+00 4.611489999999999867e+00 1.030839999999999979e+00 7.780990000000000073e+00 2.935299999999999798e+00 3.500729999999999897e+00 2.558640000000000025e+00 3.135040000000000049e+00 3.792120000000000157e+00 7.869900000000000340e+00 -2.010599999999999887e-01 2.146500000000000075e+00 5.175569999999999560e+00 6.879000000000000392e-02 2.089830000000000076e+00 1.024530000000000030e+01 -1.599420000000000064e+00 4.737809999999999633e+00 5.217550000000000132e+00 -1.536729999999999929e+00 4.464480000000000004e+00 3.246999999999999886e-02 2.670479999999999965e+00 2.398620000000000196e+00 5.492890000000000050e+00 3.092799999999999994e+00 2.018510000000000026e+00 1.027924999999999933e+01 1.580750000000000099e+00 4.767059999999999853e+00 5.307909999999999684e+00 1.528189999999999937e+00 4.610319999999999752e+00 1.016668999999999912e+01 3.336590000000000167e+00 8.251100000000000101e-01 3.703310000000000102e+00
1.603369999999999962e+00 9.903699999999999726e-01 4.455309999999999881e+00 1.563639999999999919e+00 9.782999999999999474e-01 9.628099999999999881e+00 1.920000000000000049e-03 3.622879999999999878e+00 4.509149999999999991e+00 -1.985999999999999918e-02 3.711790000000000145e+00 9.497189999999999799e+00 4.479359999999999786e+00 1.062799999999999967e+00 5.065900000000000070e+00 4.634050000000000225e+00 1.021190000000000042e+00 9.827130000000000365e+00 3.066219999999999946e+00 3.695440000000000058e+00 4.555950000000000166e+00 3.106149999999999967e+00 3.678900000000000059e+00 9.614010000000000389e+00 2.724999999999999992e-02 1.822589999999999932e+00 1.721440000000000081e+00 1.631000000000000158e-02 1.883029999999999982e+00 7.074779999999999625e+00 -1.617609999999999992e+00 4.381070000000000242e+00 1.906199999999999894e+00 -1.526180000000000092e+00 4.546520000000000117e+00 7.006310000000000038e+00 3.026510000000000034e+00 1.735160000000000036e+00 1.925450000000000106e+00 3.056090000000000195e+00 1.901890000000000081e+00 7.290949999999999598e+00 1.533549999999999969e+00 4.244119999999999671e+00 1.703200000000000047e+00 1.556110000000000104e+00 4.539399999999999658e+00 7.136289999999999800e+00 4.712229999999999919e+00 7.744699999999999918e-01 1.666949999999999932e+00 1.505190000000000028e+00 9.665200000000000458e-01 7.724929999999999630e+00 -3.905999999999999750e-02 3.509879999999999889e+00 2.526209999999999845e+00 -3.500000000000000073e-03 3.670199999999999907e+00 7.634479999999999933e+00 1.342049999999999965e+00 8.246599999999999486e-01 2.473390000000000200e+00 4.623960000000000292e+00 9.819499999999999895e-01 7.652960000000000207e+00 3.019550000000000178e+00 3.564400000000000013e+00 2.615969999999999906e+00 3.109700000000000131e+00 3.708969999999999878e+00 7.754570000000000185e+00 -7.889999999999999444e-03 1.843990000000000018e+00 5.160230000000000317e+00 7.419000000000000594e-02 1.990040000000000031e+00 1.006734999999999935e+01 -1.542820000000000080e+00 4.557879999999999932e+00 5.113719999999999821e+00 -1.578480000000000105e+00 4.426040000000000418e+00 1.862000000000000113e-02 2.953809999999999825e+00 2.053529999999999855e+00 5.474440000000000417e+00 3.028360000000000163e+00 1.940229999999999899e+00 1.021268000000000065e+01 1.520299999999999985e+00 4.540049999999999919e+00 5.231279999999999930e+00 1.530799999999999939e+00 4.516659999999999897e+00 1.007957000000000036e+01 3.492249999999999854e+00 7.147400000000000420e-01 3.570279999999999898e+00