-2.549748103400000048e+02
-2.570584309700000176e+02
-2.544373735000000067e+02
-2.528796392900000001e+02
-2.518547859900000105e+02
-2.571524241999999845e+02
-2.547185233499999981e+02
-2.562932824800000162e+02
-2.527700199999999882e+02
-2.561624536799999987e+02
-2.534877006600000016e+02
-2.568887032599999998e+02
-2.551046943100000135e+02
-2.548224862499999972e+02
-2.511174468499999932e+02
-2.551627011600000117e+02
-2.549353710899999896e+02
-2.549413259799999878e+02
-2.516995836600000018e+02
-2.542727581100000123e+02
-2.569623131000000171e+02
-2.549214315399999862e+02
-2.541865460799999994e+02
-2.544414441399999873e+02
-2.550602077300000019e+02
-2.525286744599999906e+02
-2.564696061399999962e+02
-2.536136964199999966e+02
-2.568771410300000184e+02
-2.517423727700000029e+02
-2.562223975499999824e+02
-2.543666137499999991e+02
-2.520921398600000032e+02
-2.505783466800000099e+02
-2.548984368399999880e+02
-2.545687197899999887e+02
-2.568592295099999774e+02
-2.528425242000000139e+02
-2.544576469700000132e+02
-2.536602522800000088e+02
-2.569910308199999918e+02
-2.501087301899999886e+02
-2.548750038599999925e+02
-2.546614538899999900e+02
-2.545353965500000015e+02
-2.553908482200000094e+02
-2.527056261399999926e+02
-2.542707809999999995e+02
-2.552328713800000060e+02
-2.531323668400000031e+02
