1.567020000000000080e+00 8.985400000000000054e-01 4.502670000000000172e+00 1.569029999999999925e+00 8.074700000000000211e-01 9.480119999999999436e+00 5.510000000000000141e-03 3.617649999999999810e+00 4.432809999999999917e+00 -2.374600000000000044e-01 3.503929999999999989e+00 9.600130000000000052e+00 4.553270000000000373e+00 8.227299999999999613e-01 4.681259999999999977e+00 2.875150000000000095e+00 3.729550000000000143e+00 4.479940000000000033e+00 2.885650000000000048e+00 3.606580000000000119e+00 9.600099999999999412e+00 1.643300000000000038e-01 1.787469999999999892e+00 1.893350000000000088e+00 -5.081999999999999712e-02 1.871779999999999999e+00 7.038859999999999673e+00 -1.410160000000000080e+00 4.646950000000000358e+00 2.046990000000000087e+00 -1.371380000000000043e+00 4.503949999999999676e+00 6.823769999999999669e+00 3.105649999999999800e+00 1.909140000000000059e+00 1.940579999999999972e+00 3.008280000000000065e+00 1.985540000000000083e+00 7.040569999999999773e+00 1.633250000000000091e+00 4.524919999999999831e+00 1.855900000000000105e+00 1.496399999999999952e+00 4.590340000000000309e+00 7.004920000000000258e+00 1.612069999999999892e+00 9.303399999999999448e-01 2.473860000000000170e+00 1.467940000000000023e+00 8.077199999999999935e-01 7.352380000000000138e+00 8.730999999999999872e-02 3.604820000000000135e+00 2.559289999999999843e+00 -3.678000000000000019e-02 3.567600000000000104e+00 7.698030000000000150e+00 4.555349999999999788e+00 7.717800000000000216e-01 2.679670000000000218e+00 4.417989999999999640e+00 8.180899999999999839e-01 7.512529999999999930e+00 3.111909999999999954e+00 3.683149999999999924e+00 2.465149999999999952e+00 3.075530000000000097e+00 3.805699999999999861e+00 7.700380000000000003e+00 3.380000000000000192e-03 1.806049999999999933e+00 5.237659999999999982e+00 4.270000000000000184e-02 1.804740000000000011e+00 5.215000000000000191e-02 -1.546040000000000081e+00 4.456660000000000288e+00 4.935859999999999914e+00 -1.602119999999999989e+00 4.643169999999999575e+00 1.878499999999999892e-01 2.918969999999999843e+00 1.873850000000000016e+00 5.074760000000000382e+00 3.101480000000000015e+00 1.815900000000000070e+00 7.324999999999999567e-02 1.383550000000000058e+00 4.608310000000000350e+00 5.106749999999999901e+00 1.549169999999999936e+00 4.440249999999999808e+00 1.013597000000000037e+01
1.771130000000000093e+00 9.675200000000000466e-01 4.334819999999999673e+00 2.022790000000000088e+00 1.492340000000000000e+00 9.524770000000000181e+00 3.620399999999999729e-01 3.895270000000000010e+00 4.472290000000000099e+00 7.868600000000000039e-01 4.145089999999999719e+00 9.432880000000000820e+00 4.879430000000000156e+00 1.066270000000000051e+00 4.252290000000000347e+00 3.550040000000000084e+00 3.591819999999999791e+00 4.418050000000000033e+00 3.621210000000000040e+00 4.004579999999999806e+00 9.310919999999999419e+00 1.899999999999999953e-02 1.949640000000000040e+00 1.880230000000000068e+00 4.243899999999999895e-01 2.122479999999999922e+00 6.864709999999999646e+00 -1.293039999999999967e+00 4.486480000000000246e+00 1.789989999999999970e+00 -9.875500000000000389e-01 4.798429999999999751e+00 7.007310000000000372e+00 3.255630000000000024e+00 1.805620000000000003e+00 1.805199999999999916e+00 3.703279999999999905e+00 2.018580000000000041e+00 6.954559999999999853e+00 1.745589999999999975e+00 4.350819999999999688e+00 1.743489999999999984e+00 2.226150000000000073e+00 4.939659999999999940e+00 7.092399999999999594e+00 1.654120000000000035e+00 8.571400000000000130e-01 2.474460000000000104e+00 1.960720000000000018e+00 1.229970000000000008e+00 7.584319999999999951e+00 2.433899999999999952e-01 3.626739999999999853e+00 2.466489999999999849e+00 6.415899999999999936e-01 3.925800000000000178e+00 7.649370000000000225e+00 4.781240000000000379e+00 8.366799999999999793e-01 2.226599999999999913e+00 5.231779999999999653e+00 1.223859999999999948e+00 7.534299999999999997e+00 3.308100000000000041e+00 3.566230000000000011e+00 2.652789999999999981e+00 3.628760000000000208e+00 3.764060000000000183e+00 7.451150000000000162e+00 3.033500000000000085e-01 2.080950000000000077e+00 5.049319999999999808e+00 -6.540999999999999592e-02 2.020140000000000047e+00 6.549000000000000654e-02 -1.190299999999999914e+00 4.722879999999999967e+00 5.127349999999999852e+00 -1.546089999999999964e+00 4.533949999999999925e+00 1.389999999999999960e-03 3.450460000000000083e+00 1.890409999999999924e+00 4.967640000000000278e+00 3.639460000000000139e+00 2.306179999999999897e+00 9.913600000000000634e+00 1.995230000000000059e+00 4.768880000000000230e+00 5.066939999999999777e+00 2.209589999999999943e+00 5.029889999999999972e+00 9.863220000000000098e+00
1.519900000000000029e+00 8.657700000000000395e-01 4.351280000000000037e+00 1.485510000000000108e+00 7.352100000000000302e-01 9.145410000000000039e+00 -1.223000000000000059e-01 3.538569999999999993e+00 4.348539999999999850e+00 -1.894500000000000073e-01 3.451000000000000068e+00 9.173560000000000159e+00 4.466230000000000366e+00 9.651699999999999724e-01 4.256179999999999630e+00 2.911270000000000024e+00 3.494660000000000100e+00 4.330160000000000231e+00 2.847129999999999939e+00 3.413390000000000146e+00 9.205410000000000537e+00 7.640000000000000090e-03 1.856060000000000043e+00 1.910509999999999931e+00 -2.374300000000000022e-01 1.659470000000000001e+00 6.719710000000000072e+00 -1.562659999999999938e+00 4.568830000000000169e+00 2.024469999999999992e+00 -1.849220000000000086e+00 4.224070000000000213e+00 6.702069999999999972e+00 3.069339999999999957e+00 1.725940000000000030e+00 1.814529999999999976e+00 2.797260000000000080e+00 1.745679999999999898e+00 6.955199999999999605e+00 1.475130000000000052e+00 4.437109999999999665e+00 1.770399999999999974e+00 1.181699999999999973e+00 4.499950000000000117e+00 6.808970000000000411e+00 1.491679999999999895e+00 9.636599999999999611e-01 2.482990000000000030e+00 1.345490000000000075e+00 8.208100000000000396e-01 7.296590000000000131e+00 -7.933999999999999386e-02 3.666139999999999954e+00 2.527930000000000010e+00 -1.914700000000000013e-01 3.441710000000000047e+00 7.267710000000000115e+00 4.525990000000000180e+00 8.838799999999999990e-01 2.332059999999999800e+00 4.366469999999999629e+00 9.215799999999999548e-01 7.375510000000000232e+00 2.940030000000000143e+00 3.588420000000000165e+00 2.561240000000000183e+00 2.709610000000000074e+00 3.417219999999999924e+00 7.339260000000000339e+00 -1.334500000000000131e-01 1.796110000000000095e+00 4.831389999999999851e+00 -8.110000000000000542e-02 1.613480000000000025e+00 9.766059999999999519e+00 -1.643469999999999986e+00 4.430329999999999657e+00 4.943570000000000242e+00 -1.532629999999999937e+00 4.411400000000000432e+00 4.660000000000000080e-03 2.986289999999999889e+00 1.782350000000000101e+00 4.961960000000000370e+00 3.058609999999999829e+00 1.667569999999999997e+00 9.704879999999999285e+00 1.363690000000000069e+00 4.440949999999999953e+00 4.890229999999999855e+00 1.368509999999999893e+00 4.446209999999999773e+00 9.687749999999999417e+00
1.549609999999999932e+00 8.224599999999999689e-01 4.339730000000000310e+00 1.631129999999999969e+00 9.186100000000000376e-01 9.203359999999999985e+00 6.076000000000000151e-02 3.691949999999999843e+00 4.359289999999999665e+00 2.366000000000000048e-02 3.708480000000000221e+00 9.004979999999999762e+00 4.665930000000000355e+00 9.594000000000000306e-01 4.277479999999999727e+00 3.195329999999999782e+00 3.779030000000000111e+00 4.426730000000000054e+00 3.155390000000000139e+00 3.671289999999999942e+00 9.186360000000000525e+00 -1.395000000000000059e-02 2.073890000000000011e+00 1.827849999999999975e+00 1.686100000000000099e-01 1.844770000000000021e+00 6.650920000000000165e+00 -1.415030000000000010e+00 4.769949999999999690e+00 1.774559999999999915e+00 -1.476609999999999978e+00 4.461940000000000239e+00 6.837760000000000282e+00 3.131190000000000140e+00 1.908460000000000045e+00 1.796950000000000047e+00 3.193109999999999893e+00 1.711649999999999894e+00 6.965550000000000352e+00 1.463589999999999947e+00 4.821480000000000210e+00 1.844419999999999948e+00 1.648309999999999942e+00 4.487659999999999982e+00 6.701369999999999827e+00 1.625119999999999898e+00 9.334200000000000275e-01 2.316749999999999865e+00 1.364279999999999937e+00 7.338000000000000078e-01 7.489930000000000199e+00 1.205699999999999966e-01 3.780759999999999899e+00 2.445850000000000080e+00 1.177200000000000052e-01 3.687009999999999899e+00 7.155260000000000176e+00 4.647100000000000009e+00 1.085669999999999913e+00 2.378120000000000012e+00 4.760519999999999641e+00 6.325199999999999712e-01 7.331170000000000186e+00 3.130660000000000220e+00 3.892349999999999977e+00 2.423459999999999948e+00 3.078040000000000109e+00 3.593160000000000132e+00 7.324530000000000207e+00 1.586899999999999977e-01 1.894870000000000054e+00 4.870790000000000397e+00 -3.066999999999999935e-02 1.875960000000000072e+00 9.677279999999999660e+00 -1.240129999999999955e+00 4.470270000000000188e+00 5.014649999999999608e+00 -1.539409999999999945e+00 4.661080000000000112e+00 9.666119999999999379e+00 3.053010000000000002e+00 1.841380000000000017e+00 4.988719999999999821e+00 3.117669999999999941e+00 1.719859999999999944e+00 9.537150000000000460e+00 1.575129999999999919e+00 4.803239999999999732e+00 4.565680000000000405e+00 1.480150000000000077e+00 4.517019999999999591e+00 9.561000000000000054e-02
1.821630000000000082e+00 9.437900000000000178e-01 4.366329999999999600e+00 1.835290000000000088e+00 1.140500000000000069e+00 9.186070000000000846e+00 5.444999999999999840e-02 3.540939999999999976e+00 4.297889999999999766e+00 3.916600000000000081e-01 3.925419999999999909e+00 9.053800000000000736e+00 4.873400000000000176e+00 8.301500000000000545e-01 4.223790000000000155e+00 3.486209999999999809e+00 3.520770000000000177e+00 4.285549999999999748e+00 3.446400000000000130e+00 3.906680000000000152e+00 9.062569999999999126e+00 -1.013999999999999971e-02 1.923189999999999955e+00 1.946439999999999948e+00 2.681700000000000195e-01 1.782129999999999992e+00 6.601530000000000342e+00 -1.510739999999999972e+00 4.640609999999999680e+00 1.911540000000000017e+00 -1.128759999999999986e+00 4.604560000000000208e+00 6.828400000000000247e+00 3.301169999999999938e+00 1.841900000000000093e+00 1.813679999999999959e+00 3.564579999999999860e+00 2.113049999999999873e+00 6.542410000000000281e+00 1.851909999999999945e+00 4.528739999999999988e+00 1.882060000000000066e+00 1.872870000000000035e+00 4.441950000000000287e+00 6.453789999999999694e+00 1.602139999999999898e+00 1.004480000000000040e+00 2.480309999999999793e+00 1.993919999999999915e+00 1.194989999999999997e+00 7.271149999999999558e+00 -8.137999999999999401e-02 3.605129999999999946e+00 2.326400000000000023e+00 4.374799999999999800e-01 3.721649999999999903e+00 7.309940000000000104e+00 4.845760000000000289e+00 1.009670000000000067e+00 2.324190000000000200e+00 4.954889999999999795e+00 1.125520000000000076e+00 6.847220000000000084e+00 3.436929999999999819e+00 3.716979999999999951e+00 2.372529999999999806e+00 3.431599999999999984e+00 3.991600000000000037e+00 7.231889999999999930e+00 1.080499999999999933e-01 1.722839999999999927e+00 4.685170000000000279e+00 3.141200000000000103e-01 2.145270000000000010e+00 9.472110000000000696e+00 -1.347879999999999967e+00 4.516350000000000087e+00 5.000390000000000335e+00 -1.571769999999999889e+00 4.477000000000000313e+00 8.530000000000000082e-02 3.467140000000000111e+00 1.816840000000000011e+00 4.745849999999999902e+00 3.305239999999999956e+00 1.823139999999999983e+00 1.078800000000000037e-01 1.745440000000000103e+00 4.306510000000000282e+00 4.493759999999999977e+00 1.917459999999999942e+00 5.003870000000000040e+00 9.589420000000000499e+00
1.486660000000000093e+00 1.082489999999999952e+00 4.409489999999999910e+00 1.391569999999999974e+00 9.722600000000000131e-01 9.256199999999999761e+00 1.843200000000000116e-01 3.683199999999999807e+00 4.418449999999999989e+00 2.929700000000000082e-01 4.019379999999999953e+00 9.193049999999999500e+00 4.387839999999999741e+00 9.606700000000000239e-01 4.209139999999999660e+00 3.195429999999999993e+00 3.458909999999999929e+00 4.174850000000000172e+00 3.152359999999999829e+00 3.706939999999999902e+00 9.064880000000000493e+00 3.162999999999999839e-02 1.811050000000000049e+00 1.701240000000000085e+00 1.503700000000000037e-01 2.057949999999999946e+00 6.712449999999999584e+00 -1.497730000000000006e+00 4.652960000000000207e+00 1.824910000000000032e+00 -1.456380000000000008e+00 4.569930000000000270e+00 6.699580000000000091e+00 2.925629999999999953e+00 1.737249999999999961e+00 1.690369999999999928e+00 3.002829999999999888e+00 1.819609999999999950e+00 6.843549999999999578e+00 1.603490000000000082e+00 4.673770000000000202e+00 1.883399999999999963e+00 1.611229999999999940e+00 4.671899999999999942e+00 6.761610000000000120e+00 1.469580000000000108e+00 9.605399999999999494e-01 2.489250000000000185e+00 1.408509999999999929e+00 8.571400000000000130e-01 7.324550000000000338e+00 1.661799999999999944e-01 3.745629999999999793e+00 2.527280000000000193e+00 6.318000000000000005e-02 3.740749999999999797e+00 7.352400000000000269e+00 4.499959999999999738e+00 9.647700000000000164e-01 2.207559999999999967e+00 4.588779999999999859e+00 8.987899999999999778e-01 7.304820000000000313e+00 3.180390000000000050e+00 3.714859999999999829e+00 2.302999999999999936e+00 3.054260000000000197e+00 3.481030000000000069e+00 7.201030000000000264e+00 -1.513299999999999923e-01 1.965039999999999898e+00 4.875420000000000087e+00 3.406000000000000000e-02 2.224600000000000133e+00 9.684390000000000498e+00 -1.346449999999999925e+00 4.637249999999999872e+00 4.941099999999999604e+00 -1.436830000000000052e+00 4.809700000000000308e+00 9.642329999999999401e+00 2.909629999999999939e+00 1.869350000000000067e+00 5.003519999999999968e+00 3.094430000000000014e+00 1.861380000000000035e+00 9.526130000000000209e+00 1.731959999999999944e+00 4.790939999999999976e+00 4.800629999999999953e+00 1.768610000000000015e+00 4.555480000000000196e+00 8.745999999999999608e-02
1.545709999999999917e+00 9.315099999999999492e-01 4.331760000000000055e+00 1.572230000000000016e+00 9.130700000000000482e-01 9.077040000000000219e+00 -1.639400000000000024e-01 3.533440000000000136e+00 4.310850000000000293e+00 -1.388000000000000067e-01 3.714960000000000040e+00 9.116039999999999921e+00 4.559789999999999566e+00 7.631900000000000350e-01 4.184890000000000221e+00 2.915430000000000188e+00 3.566250000000000142e+00 4.320800000000000196e+00 2.957359999999999989e+00 3.470680000000000209e+00 9.119460000000000122e+00 -1.257800000000000029e-01 1.814359999999999973e+00 1.736669999999999936e+00 -1.642200000000000049e-01 1.907469999999999999e+00 6.690520000000000245e+00 -1.550659999999999927e+00 4.519300000000000317e+00 1.894249999999999989e+00 -1.706919999999999993e+00 4.461400000000000254e+00 6.654510000000000147e+00 2.974200000000000177e+00 1.883999999999999897e+00 1.949130000000000029e+00 2.906429999999999847e+00 1.691640000000000033e+00 6.692169999999999952e+00 1.517039999999999944e+00 4.520419999999999661e+00 1.853639999999999954e+00 1.491489999999999982e+00 4.540720000000000312e+00 6.806129999999999569e+00 1.420139999999999958e+00 9.502899999999999681e-01 2.380819999999999936e+00 1.431329999999999991e+00 8.297999999999999821e-01 7.320030000000000037e+00 2.650000000000000012e-03 3.612649999999999917e+00 2.431130000000000013e+00 -9.912999999999999590e-02 3.631569999999999965e+00 7.340860000000000163e+00 4.587139999999999773e+00 9.481100000000000083e-01 2.357169999999999987e+00 4.481690000000000396e+00 7.959600000000000009e-01 7.145730000000000359e+00 2.999359999999999804e+00 3.613529999999999909e+00 2.510959999999999859e+00 2.943670000000000009e+00 3.429720000000000102e+00 7.246279999999999610e+00 -1.229999999999999974e-03 1.800769999999999982e+00 4.851609999999999978e+00 -1.730200000000000071e-01 1.780720000000000081e+00 9.509240000000000137e+00 -1.738199999999999967e+00 4.556490000000000151e+00 4.811250000000000249e+00 -1.484180000000000055e+00 4.647809999999999775e+00 4.347000000000000169e-02 3.150100000000000122e+00 1.762909999999999977e+00 4.877779999999999561e+00 3.219879999999999853e+00 1.686220000000000052e+00 9.655889999999999418e+00 1.312619999999999898e+00 4.452359999999999651e+00 4.780380000000000074e+00 1.526370000000000005e+00 4.422559999999999825e+00 1.137999999999999949e-02
1.747610000000000108e+00 9.358899999999999997e-01 4.130840000000000067e+00 1.641620000000000079e+00 1.032159999999999966e+00 9.213060000000000471e+00 1.592699999999999949e-01 3.535989999999999966e+00 4.337189999999999657e+00 6.277000000000000635e-02 3.856300000000000061e+00 9.240149999999999864e+00 4.980349999999999611e+00 9.135600000000000387e-01 4.319950000000000401e+00 3.369730000000000114e+00 3.798459999999999948e+00 4.274090000000000167e+00 3.447150000000000158e+00 3.584659999999999958e+00 9.272249999999999659e+00 3.113000000000000142e-02 1.679140000000000077e+00 1.875469999999999970e+00 -1.189599999999999963e-01 1.849960000000000049e+00 7.013399999999999856e+00 -1.445210000000000106e+00 4.463289999999999758e+00 1.877299999999999969e+00 -1.639369999999999994e+00 4.513390000000000235e+00 6.751269999999999882e+00 3.407610000000000028e+00 1.711549999999999905e+00 1.946909999999999918e+00 3.069370000000000154e+00 1.900249999999999995e+00 6.820429999999999993e+00 1.726909999999999945e+00 4.426630000000000287e+00 1.928679999999999950e+00 1.579820000000000002e+00 4.663490000000000357e+00 6.755679999999999907e+00 1.822089999999999987e+00 9.589100000000000401e-01 2.370420000000000194e+00 1.587550000000000017e+00 1.045909999999999895e+00 7.325090000000000323e+00 4.180999999999999994e-02 3.714679999999999982e+00 2.391630000000000145e+00 4.315999999999999698e-02 3.822179999999999911e+00 7.300849999999999618e+00 5.027359999999999829e+00 8.553100000000000147e-01 2.505790000000000184e+00 4.537429999999999630e+00 1.106549999999999923e+00 7.283100000000000129e+00 3.388430000000000053e+00 3.568410000000000082e+00 2.315519999999999801e+00 3.170640000000000125e+00 3.757200000000000095e+00 7.293999999999999595e+00 8.974000000000000032e-02 1.939470000000000027e+00 4.988679999999999559e+00 4.875000000000000167e-02 2.142329999999999846e+00 9.757319999999999993e+00 -1.403629999999999933e+00 4.617130000000000400e+00 5.018379999999999619e+00 -1.715570000000000039e+00 4.487499999999999822e+00 1.081000000000000016e-02 3.359739999999999949e+00 1.965850000000000097e+00 4.696679999999999744e+00 3.459630000000000205e+00 1.682379999999999987e+00 9.762040000000000717e+00 1.752289999999999903e+00 4.595250000000000057e+00 4.997700000000000031e+00 1.787330000000000085e+00 4.611539999999999750e+00 9.671789999999999665e+00
1.321900000000000075e+00 9.514799999999999924e-01 4.270410000000000039e+00 1.590379999999999905e+00 8.057699999999999863e-01 9.538729999999999265e+00 3.589999999999999875e-03 3.706630000000000091e+00 4.262050000000000338e+00 1.228299999999999947e-01 3.657630000000000159e+00 9.411210000000000520e+00 4.496410000000000018e+00 1.001540000000000097e+00 4.354849999999999888e+00 2.835550000000000015e+00 3.703370000000000051e+00 4.346569999999999823e+00 3.084870000000000001e+00 3.502159999999999940e+00 9.479570000000000718e+00 2.536000000000000060e-02 1.888169999999999904e+00 1.799870000000000081e+00 6.851000000000000145e-02 1.947419999999999929e+00 6.863170000000000215e+00 -1.622149999999999981e+00 4.549610000000000376e+00 1.878020000000000023e+00 -1.417990000000000084e+00 4.438620000000000232e+00 6.921299999999999564e+00 3.017310000000000159e+00 1.752839999999999954e+00 1.857140000000000013e+00 3.066149999999999931e+00 1.687629999999999963e+00 6.921299999999999564e+00 1.412549999999999972e+00 4.611119999999999663e+00 1.814149999999999929e+00 1.463330000000000020e+00 4.533159999999999634e+00 6.976099999999999746e+00 1.403659999999999908e+00 8.782400000000000206e-01 2.413190000000000168e+00 1.537260000000000071e+00 8.202099999999999946e-01 7.557339999999999947e+00 -8.114999999999999991e-02 3.719640000000000057e+00 2.454340000000000188e+00 3.660000000000000059e-02 3.642079999999999984e+00 7.624649999999999928e+00 4.528450000000000308e+00 1.030880000000000019e+00 2.513440000000000119e+00 4.673199999999999577e+00 8.435099999999999820e-01 7.553889999999999993e+00 2.886760000000000215e+00 3.592550000000000132e+00 2.402140000000000164e+00 3.065920000000000201e+00 3.590230000000000032e+00 7.530050000000000132e+00 -8.982999999999999319e-02 1.950960000000000027e+00 4.985960000000000392e+00 7.087999999999999856e-02 1.770899999999999919e+00 9.936049999999999827e+00 -1.693869999999999987e+00 4.519379999999999953e+00 4.934050000000000047e+00 -1.441920000000000091e+00 4.342089999999999783e+00 2.577000000000000124e-02 2.807459999999999845e+00 1.912849999999999939e+00 4.907650000000000290e+00 3.120470000000000077e+00 1.539719999999999978e+00 1.372899999999999954e-01 1.426819999999999977e+00 4.614880000000000315e+00 5.016720000000000290e+00 1.709619999999999918e+00 4.549959999999999560e+00 4.349999999999999700e-03
1.549660000000000037e+00 7.725300000000000500e-01 4.275610000000000355e+00 1.565660000000000052e+00 7.448099999999999721e-01 9.347479999999999123e+00 7.212999999999999967e-02 3.441030000000000033e+00 4.312389999999999723e+00 1.986300000000000010e-01 3.395649999999999835e+00 9.436189999999999856e+00 4.474070000000000213e+00 9.223900000000000432e-01 4.296820000000000306e+00 3.141199999999999992e+00 3.563899999999999846e+00 4.540110000000000312e+00 3.108880000000000088e+00 3.589900000000000091e+00 9.263790000000000191e+00 4.600000000000000139e-04 1.719379999999999908e+00 1.920670000000000099e+00 -3.220000000000000206e-03 1.732199999999999962e+00 6.766810000000000436e+00 -1.482490000000000085e+00 4.441419999999999924e+00 1.936360000000000081e+00 -1.411049999999999915e+00 4.331400000000000361e+00 6.895279999999999632e+00 2.946210000000000218e+00 1.837220000000000075e+00 1.856579999999999897e+00 2.922670000000000101e+00 1.696280000000000010e+00 6.833990000000000009e+00 1.504890000000000061e+00 4.398349999999999760e+00 1.919810000000000016e+00 1.502939999999999943e+00 4.475410000000000110e+00 6.825859999999999594e+00 1.440190000000000081e+00 9.039500000000000313e-01 2.433949999999999836e+00 1.467610000000000081e+00 8.451600000000000223e-01 7.549070000000000391e+00 4.039000000000000229e-02 3.502009999999999845e+00 2.497020000000000017e+00 1.213999999999999940e-01 3.414899999999999824e+00 7.453789999999999694e+00 4.374489999999999768e+00 9.386100000000000554e-01 2.457139999999999880e+00 4.528800000000000381e+00 9.338699999999999779e-01 7.460609999999999964e+00 3.123429999999999929e+00 3.578390000000000182e+00 2.599759999999999849e+00 3.021999999999999797e+00 3.529840000000000089e+00 7.320669999999999789e+00 4.744000000000000300e-02 1.659489999999999910e+00 4.910309999999999953e+00 -1.416999999999999926e-01 1.615320000000000089e+00 9.848499999999999588e+00 -1.324559999999999960e+00 4.383280000000000065e+00 5.059709999999999930e+00 -1.384330000000000060e+00 4.362079999999999735e+00 9.067999999999999672e-02 2.997230000000000061e+00 1.660709999999999908e+00 4.981670000000000265e+00 3.120940000000000047e+00 1.786200000000000010e+00 9.885730000000000572e+00 1.504280000000000062e+00 4.510839999999999961e+00 5.015369999999999884e+00 1.567639999999999922e+00 4.411789999999999878e+00 1.319099999999999995e-01
1.299739999999999895e+00 9.168699999999999628e-01 4.548989999999999867e+00 1.246099999999999985e+00 7.028900000000000148e-01 9.695420000000000371e+00 8.623999999999999722e-02 3.376660000000000217e+00 4.490649999999999586e+00 -1.644200000000000106e-01 3.503639999999999866e+00 9.492449999999999832e+00 4.510460000000000136e+00 7.306599999999999762e-01 4.463549999999999685e+00 3.100610000000000088e+00 3.572569999999999801e+00 4.310459999999999958e+00 3.116200000000000081e+00 3.172489999999999810e+00 9.514390000000000569e+00 -1.365300000000000125e-01 1.665750000000000064e+00 1.947170000000000067e+00 1.356199999999999906e-01 1.763740000000000085e+00 7.071130000000000138e+00 -1.687030000000000030e+00 4.514090000000000380e+00 2.026689999999999880e+00 -1.458139999999999992e+00 4.607669999999999710e+00 7.009509999999999685e+00 3.031320000000000014e+00 1.772399999999999975e+00 1.874770000000000048e+00 3.137350000000000083e+00 1.895929999999999893e+00 6.910059999999999647e+00 1.466399999999999926e+00 4.505259999999999820e+00 1.877660000000000107e+00 1.611939999999999928e+00 4.545989999999999753e+00 6.961219999999999963e+00 1.438569999999999904e+00 9.557799999999999629e-01 2.639289999999999914e+00 1.607029999999999959e+00 8.426299999999999901e-01 7.644610000000000127e+00 -8.168000000000000260e-02 3.392469999999999875e+00 2.584449999999999914e+00 7.005999999999999728e-02 3.539179999999999993e+00 7.522949999999999804e+00 4.464310000000000223e+00 8.134900000000000464e-01 2.615000000000000213e+00 4.512120000000000353e+00 8.191199999999999593e-01 7.570759999999999934e+00 3.079099999999999948e+00 3.410680000000000156e+00 2.379570000000000185e+00 3.100620000000000154e+00 3.582030000000000047e+00 7.592080000000000162e+00 -2.143599999999999950e-01 1.645650000000000057e+00 5.212909999999999933e+00 -8.149000000000000687e-02 1.854070000000000107e+00 6.707000000000000461e-02 -1.533069999999999933e+00 4.364090000000000025e+00 5.112790000000000390e+00 -1.685179999999999900e+00 4.542799999999999727e+00 9.976999999999999758e-02 2.986310000000000020e+00 1.832880000000000065e+00 4.969280000000000364e+00 2.845790000000000042e+00 1.509009999999999962e+00 1.006441000000000052e+01 1.518010000000000081e+00 4.441250000000000142e+00 5.172710000000000363e+00 1.445089999999999986e+00 4.285379999999999967e+00 1.011050999999999966e+01
1.546489999999999920e+00 9.741900000000000004e-01 4.487180000000000391e+00 1.244820000000000038e+00 9.911400000000000210e-01 9.526960000000000761e+00 1.557699999999999918e-01 3.779720000000000191e+00 4.512470000000000425e+00 -1.696300000000000030e-01 3.652460000000000040e+00 9.584289999999999310e+00 4.754450000000000287e+00 9.958799999999999875e-01 4.500680000000000014e+00 3.159800000000000164e+00 3.788120000000000154e+00 4.508130000000000415e+00 2.894400000000000084e+00 3.676270000000000149e+00 9.602629999999999555e+00 -6.406000000000000583e-02 1.942679999999999962e+00 2.000020000000000131e+00 -6.852999999999999370e-02 1.915089999999999959e+00 7.018819999999999837e+00 -1.429289999999999949e+00 4.583929999999999616e+00 2.095349999999999824e+00 -1.544329999999999981e+00 4.719769999999999577e+00 6.966829999999999856e+00 3.216800000000000104e+00 1.565609999999999946e+00 1.789190000000000058e+00 3.044109999999999872e+00 1.975459999999999994e+00 6.914139999999999731e+00 1.678800000000000070e+00 4.541590000000000238e+00 2.081970000000000098e+00 1.515630000000000033e+00 4.748289999999999900e+00 7.106010000000000382e+00 1.532769999999999966e+00 8.353800000000000114e-01 2.577560000000000073e+00 1.652989999999999959e+00 1.024440000000000017e+00 7.730470000000000397e+00 6.540999999999999592e-02 3.859929999999999861e+00 2.699310000000000098e+00 -1.245799999999999963e-01 3.708140000000000214e+00 7.590790000000000148e+00 4.721269999999999634e+00 8.523100000000000120e-01 2.651510000000000034e+00 4.469330000000000247e+00 9.365200000000000191e-01 7.360490000000000421e+00 3.305689999999999795e+00 3.450039999999999996e+00 2.613620000000000054e+00 3.041679999999999939e+00 3.768209999999999837e+00 7.691220000000000390e+00 4.485000000000000098e-02 1.807239999999999958e+00 5.192140000000000200e+00 -9.143999999999999351e-02 1.858489999999999975e+00 7.574000000000000177e-02 -1.627690000000000081e+00 4.731760000000000410e+00 4.944609999999999950e+00 -1.526040000000000063e+00 4.707930000000000170e+00 1.327200000000000046e-01 3.193900000000000183e+00 1.789320000000000022e+00 5.070059999999999789e+00 2.924960000000000004e+00 1.730550000000000033e+00 1.002880000000000038e+01 1.651980000000000004e+00 4.624100000000000321e+00 5.252040000000000042e+00 1.634319999999999995e+00 4.600439999999999863e+00 2.119199999999999973e-01