8.036952272000000619e+00 0.000000000000000000e+00 0.000000000000000000e+00 3.967331551000000012e+00 7.048886801000000091e+00 0.000000000000000000e+00 4.189978423000000340e+00 2.256872909999999788e+00 6.797024150999999570e+00
8.036952272000000619e+00 0.000000000000000000e+00 0.000000000000000000e+00 3.967331551000000012e+00 7.048886801000000091e+00 0.000000000000000000e+00 4.189978423000000340e+00 2.256872909999999788e+00 6.797024150999999570e+00
8.070119819000000305e+00 0.000000000000000000e+00 0.000000000000000000e+00 3.912155794999999880e+00 7.103991909000000327e+00 0.000000000000000000e+00 3.981850640000000219e+00 2.466596489000000059e+00 6.407147940999999847e+00
8.070119819000000305e+00 0.000000000000000000e+00 0.000000000000000000e+00 3.912155794999999880e+00 7.103991909000000327e+00 0.000000000000000000e+00 3.981850640000000219e+00 2.466596489000000059e+00 6.407147940999999847e+00
8.070127959000000573e+00 0.000000000000000000e+00 0.000000000000000000e+00 4.104796312000000391e+00 7.053460461000000237e+00 0.000000000000000000e+00 3.860200847999999851e+00 2.203293164000000193e+00 6.653009846999999866e+00
8.070127959000000573e+00 0.000000000000000000e+00 0.000000000000000000e+00 4.104796312000000391e+00 7.053460461000000237e+00 0.000000000000000000e+00 3.860200847999999851e+00 2.203293164000000193e+00 6.653009846999999866e+00
8.287036998999999682e+00 0.000000000000000000e+00 0.000000000000000000e+00 4.299466036000000102e+00 6.928817458000000151e+00 0.000000000000000000e+00 4.025196278000000127e+00 2.128462937000000110e+00 6.436973275999999800e+00
8.287036998999999682e+00 0.000000000000000000e+00 0.000000000000000000e+00 4.299466036000000102e+00 6.928817458000000151e+00 0.000000000000000000e+00 4.025196278000000127e+00 2.128462937000000110e+00 6.436973275999999800e+00
7.867741653999999585e+00 0.000000000000000000e+00 0.000000000000000000e+00 3.942442659000000127e+00 7.171980786999999857e+00 0.000000000000000000e+00 3.795369532000000046e+00 2.490414712999999836e+00 6.715128855999999757e+00
7.867741653999999585e+00 0.000000000000000000e+00 0.000000000000000000e+00 3.942442659000000127e+00 7.171980786999999857e+00 0.000000000000000000e+00 3.795369532000000046e+00 2.490414712999999836e+00 6.715128855999999757e+00
8.271376530999999588e+00 0.000000000000000000e+00 0.000000000000000000e+00 4.093939953999999659e+00 6.945654503000000091e+00 0.000000000000000000e+00 4.209346732000000202e+00 2.442733838000000102e+00 6.779634159999999632e+00
8.271376530999999588e+00 0.000000000000000000e+00 0.000000000000000000e+00 4.093939953999999659e+00 6.945654503000000091e+00 0.000000000000000000e+00 4.209346732000000202e+00 2.442733838000000102e+00 6.779634159999999632e+00
8.124048939999999774e+00 0.000000000000000000e+00 0.000000000000000000e+00 3.909517813999999980e+00 6.819742030999999649e+00 0.000000000000000000e+00 3.970403199999999799e+00 2.372177053000000146e+00 6.479333518999999875e+00
8.124048939999999774e+00 0.000000000000000000e+00 0.000000000000000000e+00 3.909517813999999980e+00 6.819742030999999649e+00 0.000000000000000000e+00 3.970403199999999799e+00 2.372177053000000146e+00 6.479333518999999875e+00
8.064982947000000735e+00 0.000000000000000000e+00 0.000000000000000000e+00 3.905724299000000066e+00 7.184605732999999717e+00 0.000000000000000000e+00 3.946913730999999981e+00 2.257002148000000208e+00 6.737644857000000265e+00
8.064982947000000735e+00 0.000000000000000000e+00 0.000000000000000000e+00 3.905724299000000066e+00 7.184605732999999717e+00 0.000000000000000000e+00 3.946913730999999981e+00 2.257002148000000208e+00 6.737644857000000265e+00
8.118677675000000704e+00 0.000000000000000000e+00 0.000000000000000000e+00 4.077875463999999894e+00 7.178697084000000395e+00 0.000000000000000000e+00 4.247035944000000285e+00 2.228021234999999933e+00 6.721500679000000034e+00
8.118677675000000704e+00 0.000000000000000000e+00 0.000000000000000000e+00 4.077875463999999894e+00 7.178697084000000395e+00 0.000000000000000000e+00 4.247035944000000285e+00 2.228021234999999933e+00 6.721500679000000034e+00
8.309337363999999226e+00 0.000000000000000000e+00 0.000000000000000000e+00 4.125658488000000013e+00 7.089526659999999758e+00 0.000000000000000000e+00 4.201822830000000231e+00 2.200382225999999886e+00 7.014760672999999613e+00
8.309337363999999226e+00 0.000000000000000000e+00 0.000000000000000000e+00 4.125658488000000013e+00 7.089526659999999758e+00 0.000000000000000000e+00 4.201822830000000231e+00 2.200382225999999886e+00 7.014760672999999613e+00
8.553058069000000430e+00 0.000000000000000000e+00 0.000000000000000000e+00 4.203712591999999582e+00 7.220875011999999593e+00 0.000000000000000000e+00 4.409607641000000022e+00 2.302821338999999856e+00 6.973437603999999901e+00
8.553058069000000430e+00 0.000000000000000000e+00 0.000000000000000000e+00 4.203712591999999582e+00 7.220875011999999593e+00 0.000000000000000000e+00 4.409607641000000022e+00 2.302821338999999856e+00 6.973437603999999901e+00
8.157433875000000612e+00 0.000000000000000000e+00 0.000000000000000000e+00 4.212796352999999883e+00 7.353331883000000069e+00 0.000000000000000000e+00 4.159016427000000071e+00 2.444916657999999909e+00 7.010614641000000091e+00
8.157433875000000612e+00 0.000000000000000000e+00 0.000000000000000000e+00 4.212796352999999883e+00 7.353331883000000069e+00 0.000000000000000000e+00 4.159016427000000071e+00 2.444916657999999909e+00 7.010614641000000091e+00
8.323470749000000168e+00 0.000000000000000000e+00 0.000000000000000000e+00 4.131056419000000091e+00 7.059323394999999834e+00 0.000000000000000000e+00 4.239624723999999567e+00 2.465719919000000093e+00 7.000968403999999978e+00
8.323470749000000168e+00 0.000000000000000000e+00 0.000000000000000000e+00 4.131056419000000091e+00 7.059323394999999834e+00 0.000000000000000000e+00 4.239624723999999567e+00 2.465719919000000093e+00 7.000968403999999978e+00
8.371176284000000578e+00 0.000000000000000000e+00 0.000000000000000000e+00 4.210194151999999690e+00 7.296116226999999732e+00 0.000000000000000000e+00 4.390897423000000188e+00 2.288412166000000081e+00 7.031592394999999662e+00
8.371176284000000578e+00 0.000000000000000000e+00 0.000000000000000000e+00 4.210194151999999690e+00 7.296116226999999732e+00 0.000000000000000000e+00 4.390897423000000188e+00 2.288412166000000081e+00 7.031592394999999662e+00
8.283490818000000644e+00 0.000000000000000000e+00 0.000000000000000000e+00 4.318064496999999946e+00 7.159213753000000402e+00 0.000000000000000000e+00 4.208743164000000370e+00 2.569958710999999951e+00 6.943225746000000420e+00
8.283490818000000644e+00 0.000000000000000000e+00 0.000000000000000000e+00 4.318064496999999946e+00 7.159213753000000402e+00 0.000000000000000000e+00 4.208743164000000370e+00 2.569958710999999951e+00 6.943225746000000420e+00
8.722649448000000305e+00 0.000000000000000000e+00 0.000000000000000000e+00 4.563588227000000330e+00 7.452342228000000013e+00 0.000000000000000000e+00 4.282235514999999992e+00 2.347307770000000016e+00 6.994269835999999962e+00
8.722649448000000305e+00 0.000000000000000000e+00 0.000000000000000000e+00 4.563588227000000330e+00 7.452342228000000013e+00 0.000000000000000000e+00 4.282235514999999992e+00 2.347307770000000016e+00 6.994269835999999962e+00
8.476396611000000192e+00 0.000000000000000000e+00 0.000000000000000000e+00 4.329189908000000031e+00 7.418792674999999726e+00 0.000000000000000000e+00 4.400768275999999979e+00 2.293694814999999831e+00 7.005527894000000089e+00
8.476396611000000192e+00 0.000000000000000000e+00 0.000000000000000000e+00 4.329189908000000031e+00 7.418792674999999726e+00 0.000000000000000000e+00 4.400768275999999979e+00 2.293694814999999831e+00 7.005527894000000089e+00
8.816729769000000161e+00 0.000000000000000000e+00 0.000000000000000000e+00 4.303548020000000029e+00 7.490683963999999584e+00 0.000000000000000000e+00 4.320154384000000292e+00 2.355784481999999791e+00 6.897751073000000233e+00
8.816729769000000161e+00 0.000000000000000000e+00 0.000000000000000000e+00 4.303548020000000029e+00 7.490683963999999584e+00 0.000000000000000000e+00 4.320154384000000292e+00 2.355784481999999791e+00 6.897751073000000233e+00
8.580919060999999459e+00 0.000000000000000000e+00 0.000000000000000000e+00 4.133391827999999713e+00 7.330922109000000297e+00 0.000000000000000000e+00 4.218580214000000161e+00 2.580251791999999877e+00 7.215797605999999753e+00
8.580919060999999459e+00 0.000000000000000000e+00 0.000000000000000000e+00 4.133391827999999713e+00 7.330922109000000297e+00 0.000000000000000000e+00 4.218580214000000161e+00 2.580251791999999877e+00 7.215797605999999753e+00
8.885943762000000135e+00 0.000000000000000000e+00 0.000000000000000000e+00 4.591167822000000065e+00 7.340092261999999756e+00 0.000000000000000000e+00 4.375433626000000409e+00 2.321403350999999837e+00 6.900680677999999624e+00
8.885943762000000135e+00 0.000000000000000000e+00 0.000000000000000000e+00 4.591167822000000065e+00 7.340092261999999756e+00 0.000000000000000000e+00 4.375433626000000409e+00 2.321403350999999837e+00 6.900680677999999624e+00
8.558102403999999552e+00 0.000000000000000000e+00 0.000000000000000000e+00 4.166858588000000196e+00 7.734219753999999725e+00 0.000000000000000000e+00 4.446849079999999788e+00 2.456020048000000067e+00 6.911314035000000189e+00
8.558102403999999552e+00 0.000000000000000000e+00 0.000000000000000000e+00 4.166858588000000196e+00 7.734219753999999725e+00 0.000000000000000000e+00 4.446849079999999788e+00 2.456020048000000067e+00 6.911314035000000189e+00
8.754767187000000561e+00 0.000000000000000000e+00 0.000000000000000000e+00 4.588855017000000203e+00 7.344862025000000294e+00 0.000000000000000000e+00 4.436998187000000371e+00 2.250848342999999918e+00 7.091139010000000020e+00
8.754767187000000561e+00 0.000000000000000000e+00 0.000000000000000000e+00 4.588855017000000203e+00 7.344862025000000294e+00 0.000000000000000000e+00 4.436998187000000371e+00 2.250848342999999918e+00 7.091139010000000020e+00
8.575020895999999837e+00 0.000000000000000000e+00 0.000000000000000000e+00 4.511809935999999688e+00 7.542943307999999902e+00 0.000000000000000000e+00 4.167588577000000072e+00 2.703673858000000152e+00 7.103536976000000003e+00
8.575020895999999837e+00 0.000000000000000000e+00 0.000000000000000000e+00 4.511809935999999688e+00 7.542943307999999902e+00 0.000000000000000000e+00 4.167588577000000072e+00 2.703673858000000152e+00 7.103536976000000003e+00
8.862605601000000277e+00 0.000000000000000000e+00 0.000000000000000000e+00 4.248427216999999700e+00 7.691739564999999779e+00 0.000000000000000000e+00 4.366507411999999810e+00 2.495655236999999804e+00 7.119499564999999919e+00
8.862605601000000277e+00 0.000000000000000000e+00 0.000000000000000000e+00 4.248427216999999700e+00 7.691739564999999779e+00 0.000000000000000000e+00 4.366507411999999810e+00 2.495655236999999804e+00 7.119499564999999919e+00
8.924486784000000839e+00 0.000000000000000000e+00 0.000000000000000000e+00 4.549227422000000409e+00 7.558447098000000253e+00 0.000000000000000000e+00 4.372210192999999911e+00 2.625783006999999891e+00 7.492514095999999846e+00
8.924486784000000839e+00 0.000000000000000000e+00 0.000000000000000000e+00 4.549227422000000409e+00 7.558447098000000253e+00 0.000000000000000000e+00 4.372210192999999911e+00 2.625783006999999891e+00 7.492514095999999846e+00
8.724626201999999608e+00 0.000000000000000000e+00 0.000000000000000000e+00 4.550614933000000306e+00 7.704072144999999594e+00 0.000000000000000000e+00 4.414001961000000307e+00 2.568843917000000143e+00 7.266439717999999992e+00
8.724626201999999608e+00 0.000000000000000000e+00 0.000000000000000000e+00 4.550614933000000306e+00 7.704072144999999594e+00 0.000000000000000000e+00 4.414001961000000307e+00 2.568843917000000143e+00 7.266439717999999992e+00
8.819755990000000878e+00 0.000000000000000000e+00 0.000000000000000000e+00 4.347164326999999773e+00 7.575779561000000051e+00 0.000000000000000000e+00 4.324803495000000275e+00 2.692054758999999908e+00 7.247179679000000263e+00
8.819755990000000878e+00 0.000000000000000000e+00 0.000000000000000000e+00 4.347164326999999773e+00 7.575779561000000051e+00 0.000000000000000000e+00 4.324803495000000275e+00 2.692054758999999908e+00 7.247179679000000263e+00
9.105971762999999441e+00 0.000000000000000000e+00 0.000000000000000000e+00 4.357193597000000196e+00 7.691232197999999798e+00 0.000000000000000000e+00 4.617469890999999826e+00 2.394077806999999947e+00 7.156519002999999657e+00
9.105971762999999441e+00 0.000000000000000000e+00 0.000000000000000000e+00 4.357193597000000196e+00 7.691232197999999798e+00 0.000000000000000000e+00 4.617469890999999826e+00 2.394077806999999947e+00 7.156519002999999657e+00
9.116339378999999354e+00 0.000000000000000000e+00 0.000000000000000000e+00 4.683647090000000013e+00 7.852041459999999695e+00 0.000000000000000000e+00 4.703604149000000234e+00 2.745937929000000111e+00 7.242170458000000366e+00
9.116339378999999354e+00 0.000000000000000000e+00 0.000000000000000000e+00 4.683647090000000013e+00 7.852041459999999695e+00 0.000000000000000000e+00 4.703604149000000234e+00 2.745937929000000111e+00 7.242170458000000366e+00
