8.156319999999999126e+00 9.302220000000000155e+00 6.793280000000000207e+00 9.426460000000000505e+00 7.574499999999999567e-01 2.264540000000000219e+00 1.083042000000000016e+01 1.505249999999999977e+00 4.531810000000000116e+00 5.517389999999999795e+00 4.602050000000000196e+00 6.792530000000000179e+00 1.075310999999999950e+01 3.105570000000000164e+00 2.266230000000000189e+00 1.214959999999999951e+01 3.855469999999999953e+00 4.530190000000000161e+00 6.836739999999999817e+00 6.960009999999999586e+00 6.791470000000000340e+00 4.046999999999999709e+00 5.457900000000000418e+00 2.261299999999999866e+00 5.443159999999999776e+00 6.200660000000000061e+00 4.531439999999999912e+00 6.868859999999999744e+00 2.258900000000000130e+00 6.796780000000000044e+00 4.079979999999999940e+00 7.582600000000000451e-01 2.269919999999999938e+00 9.444919999999999760e+00 8.548349999999999227e+00 4.525459999999999816e+00 8.190469999999999473e+00 4.605080000000000062e+00 6.795729999999999826e+00 5.398159999999999847e+00 3.099400000000000155e+00 2.264100000000000001e+00 6.801569999999999894e+00 3.854919999999999902e+00 4.527510000000000367e+00 5.324320000000000164e+00 4.699720000000000120e+00 1.459999999999999926e-03 6.720979999999999954e+00 5.451200000000000045e+00 2.266129999999999978e+00 8.118449999999999278e+00 6.202040000000000219e+00 4.530300000000000438e+00 9.329290000000000305e+00 7.041339999999999932e+00 3.400000000000000244e-04 6.755119999999999791e+00 7.521299999999999653e-01 2.265029999999999877e+00 8.157970000000000610e+00 1.510229999999999961e+00 4.535919999999999952e+00 1.086449999999999960e+01 4.609569999999999723e+00 6.794609999999999594e+00 8.075120000000000076e+00 3.105430000000000135e+00 2.265909999999999869e+00 9.470449999999999591e+00 3.861190000000000122e+00 4.527140000000000164e+00 7.997279999999999944e+00 4.703879999999999839e+00 4.769999999999999934e-03 9.397520000000000095e+00 5.448019999999999641e+00 2.272850000000000037e+00 1.079607999999999990e+01 6.203929999999999723e+00 4.531369999999999898e+00 2.700530000000000097e+00 1.548629999999999951e+00 1.134069999999999911e+00 4.099999999999999645e+00 2.306210000000000093e+00 3.396990000000000176e+00 5.493590000000000195e+00 3.056299999999999795e+00 5.661950000000000038e+00 4.015170000000000350e+00 3.907309999999999839e+00 1.136379999999999946e+00 5.418029999999999902e+00 4.653839999999999755e+00 3.397310000000000052e+00 6.814939999999999998e+00 5.397840000000000416e+00 5.659460000000000157e+00 5.340290000000000425e+00 6.252189999999999692e+00 1.135459999999999914e+00 6.737549999999999706e+00 7.004459999999999908e+00 3.400830000000000020e+00 8.131990000000000052e+00 7.755779999999999674e+00 5.660899999999999821e+00 5.381520000000000081e+00 1.549129999999999896e+00 1.137189999999999923e+00 6.770889999999999631e+00 2.296170000000000044e+00 3.392860000000000209e+00 8.165770000000000195e+00 3.061690000000000023e+00 5.661970000000000169e+00 6.703929999999999723e+00 3.898540000000000116e+00 1.135250000000000092e+00 8.093799999999999883e+00 4.656380000000000408e+00 3.401980000000000004e+00 9.496769999999999712e+00 5.411760000000000126e+00 5.657910000000000217e+00 8.019569999999999865e+00 6.247099999999999653e+00 1.135510000000000019e+00 9.419510000000000716e+00 6.994629999999999903e+00 3.396250000000000213e+00 1.081310000000000038e+01 7.751900000000000013e+00 5.665580000000000283e+00 8.057539999999999480e+00 1.550540000000000029e+00 1.133140000000000036e+00 9.456739999999999924e+00 2.302700000000000191e+00 3.395490000000000119e+00 1.084848000000000035e+01 3.054590000000000138e+00 5.664909999999999890e+00 9.383419999999999206e+00 3.905260000000000176e+00 1.129680000000000017e+00 1.077692000000000050e+01 4.653629999999999711e+00 3.399030000000000218e+00 1.216874999999999929e+01 5.406869999999999621e+00 5.667399999999999771e+00 1.069852999999999987e+01 6.255309999999999704e+00 1.126109999999999944e+00 1.209797999999999973e+01 7.007200000000000095e+00 3.395739999999999981e+00 1.348706999999999923e+01 7.751850000000000129e+00 5.668669999999999654e+00
8.153660000000000352e+00 9.300639999999999574e+00 6.791809999999999903e+00 9.427630000000000621e+00 7.575100000000000167e-01 2.263869999999999827e+00 6.760580000000000034e+00 8.551249999999999574e+00 4.531920000000000393e+00 5.519269999999999676e+00 4.601449999999999818e+00 6.789259999999999629e+00 1.075301999999999936e+01 3.104769999999999808e+00 2.265899999999999803e+00 1.215069000000000088e+01 3.858039999999999914e+00 4.537169999999999703e+00 6.835980000000000167e+00 6.958000000000000185e+00 6.790280000000000094e+00 4.047869999999999635e+00 5.458280000000000243e+00 2.262750000000000039e+00 5.441089999999999982e+00 6.197720000000000340e+00 4.534609999999999808e+00 6.869460000000000122e+00 2.260250000000000092e+00 6.795119999999999827e+00 4.077060000000000350e+00 7.602200000000000069e-01 2.269629999999999814e+00 9.445040000000000546e+00 8.547929999999999140e+00 4.526530000000000165e+00 8.189370000000000260e+00 4.602549999999999919e+00 6.796240000000000059e+00 5.399140000000000050e+00 3.099260000000000126e+00 2.262449999999999850e+00 6.798680000000000057e+00 3.853660000000000085e+00 4.527840000000000309e+00 9.512399999999999523e+00 6.957620000000000360e+00 6.795910000000000117e+00 6.720209999999999795e+00 5.450169999999999959e+00 2.270150000000000112e+00 8.117229999999999279e+00 6.201590000000000380e+00 4.531970000000000276e+00 1.351651000000000025e+01 9.300069999999999837e+00 6.795869999999999855e+00 1.072381000000000029e+01 7.800200000000000244e+00 2.263910000000000089e+00 8.158189999999999387e+00 1.511579999999999924e+00 4.533549999999999969e+00 1.086505000000000010e+01 4.611729999999999663e+00 6.794480000000000075e+00 8.080529999999999546e+00 3.105529999999999902e+00 2.264130000000000198e+00 9.470549999999999358e+00 3.860050000000000203e+00 4.524899999999999700e+00 7.999010000000000176e+00 4.698529999999999873e+00 8.410000000000000808e-03 9.395239999999999370e+00 5.451010000000000133e+00 2.271419999999999995e+00 1.079359000000000002e+01 6.200319999999999609e+00 4.530170000000000030e+00 2.697919999999999874e+00 1.551029999999999909e+00 1.134009999999999962e+00 4.104090000000000238e+00 2.306900000000000173e+00 3.396360000000000046e+00 5.491389999999999993e+00 3.057440000000000158e+00 5.659959999999999880e+00 4.014219999999999899e+00 3.905889999999999862e+00 1.138710000000000111e+00 5.417930000000000135e+00 4.651030000000000442e+00 3.396240000000000148e+00 6.815030000000000143e+00 5.398880000000000123e+00 5.659939999999999749e+00 5.341009999999999813e+00 6.253320000000000434e+00 1.132540000000000102e+00 6.739609999999999879e+00 7.005429999999999602e+00 3.402289999999999814e+00 8.131180000000000518e+00 7.755130000000000301e+00 5.659510000000000041e+00 5.382170000000000343e+00 1.550720000000000098e+00 1.137899999999999912e+00 6.767960000000000420e+00 2.297239999999999949e+00 3.392790000000000195e+00 8.168480000000000629e+00 3.063460000000000072e+00 5.660730000000000040e+00 6.703960000000000363e+00 3.898699999999999832e+00 1.134549999999999947e+00 8.095560000000000755e+00 4.655269999999999797e+00 3.401339999999999808e+00 9.499599999999999156e+00 5.414489999999999803e+00 5.661410000000000053e+00 8.018959999999999866e+00 6.247600000000000264e+00 1.133369999999999989e+00 9.421709999999999141e+00 6.995210000000000150e+00 3.396720000000000184e+00 1.081281000000000070e+01 7.750130000000000408e+00 5.666459999999999830e+00 8.058120000000000616e+00 1.548149999999999915e+00 1.134109999999999951e+00 9.455759999999999721e+00 2.302430000000000199e+00 3.394439999999999902e+00 1.084755000000000003e+01 3.056039999999999868e+00 5.664290000000000269e+00 9.384690000000000865e+00 3.903760000000000119e+00 1.131499999999999950e+00 1.077679000000000009e+01 4.653640000000000221e+00 3.397969999999999935e+00 1.216679000000000066e+01 5.407090000000000174e+00 5.668440000000000367e+00 1.069724000000000075e+01 6.255200000000000315e+00 1.125930000000000097e+00 1.209835999999999956e+01 7.008000000000000007e+00 3.396739999999999871e+00 1.348766999999999960e+01 7.751719999999999722e+00 5.670749999999999957e+00
7.895789999999999864e+00 9.569399999999999906e+00 6.406889999999999752e+00 9.390850000000000364e+00 8.280100000000000238e-01 2.136940000000000062e+00 6.568859999999999921e+00 8.743209999999999482e+00 4.274910000000000210e+00 1.308470000000000022e+00 2.370769999999999822e+00 5.969999999999999613e-03 1.069558999999999926e+01 3.190030000000000143e+00 2.135600000000000165e+00 1.202862999999999971e+01 4.012459999999999916e+00 4.271510000000000140e+00 2.611580000000000013e+00 4.732199999999999740e+00 6.000000000000000152e-05 3.942600000000000104e+00 5.557500000000000107e+00 2.134100000000000108e+00 1.332850999999999964e+01 6.381109999999999616e+00 4.277779999999999916e+00 2.690209999999999990e+00 7.799999999999999859e-04 9.000000000000000567e-05 4.019210000000000171e+00 8.238100000000000422e-01 2.133739999999999970e+00 9.252380000000000493e+00 8.742630000000000123e+00 4.267210000000000392e+00 3.993349999999999955e+00 2.367420000000000080e+00 1.260000000000000052e-03 5.314009999999999678e+00 3.185890000000000111e+00 2.132270000000000110e+00 6.648089999999999833e+00 4.011639999999999873e+00 4.272369999999999557e+00 9.279350000000000875e+00 7.200910000000000366e+00 6.405129999999999768e+00 6.620800000000000018e+00 5.551429999999999865e+00 2.139359999999999928e+00 7.959139999999999660e+00 6.386350000000000193e+00 4.266729999999999912e+00 5.379389999999999894e+00 2.739999999999999814e-03 7.100000000000000191e-04 1.061331999999999987e+01 7.919859999999999900e+00 2.137719999999999843e+00 8.034240000000000492e+00 1.643499999999999961e+00 4.266619999999999635e+00 1.066804999999999914e+01 4.836710000000000065e+00 6.406629999999999825e+00 8.009199999999999875e+00 3.189760000000000151e+00 2.130650000000000155e+00 9.338599999999999568e+00 4.014529999999999710e+00 4.268030000000000435e+00 1.196660999999999930e+01 7.203599999999999781e+00 6.406889999999999752e+00 9.318690000000000140e+00 5.557019999999999627e+00 2.131689999999999863e+00 1.064456000000000024e+01 6.380790000000000184e+00 4.273380000000000400e+00 2.655650000000000066e+00 1.597359999999999891e+00 1.063569999999999904e+00 3.985840000000000050e+00 2.410330000000000084e+00 3.207320000000000171e+00 5.318599999999999994e+00 3.232439999999999980e+00 5.338049999999999962e+00 3.967089999999999783e+00 3.964469999999999938e+00 1.066030000000000033e+00 5.292539999999999800e+00 4.785940000000000083e+00 3.203059999999999796e+00 6.620860000000000412e+00 5.610310000000000130e+00 5.339889999999999581e+00 5.260799999999999699e+00 6.332189999999999763e+00 1.073380000000000001e+00 6.595659999999999634e+00 7.150089999999999613e+00 3.198939999999999895e+00 7.924129999999999896e+00 7.970069999999999766e+00 5.334489999999999732e+00 5.347889999999999588e+00 1.597409999999999997e+00 1.073260000000000103e+00 6.679299999999999571e+00 2.418099999999999916e+00 3.202290000000000081e+00 8.009750000000000369e+00 3.238659999999999872e+00 5.333510000000000417e+00 6.647879999999999789e+00 3.962680000000000202e+00 1.065180000000000016e+00 7.986769999999999925e+00 4.789299999999999891e+00 3.203699999999999992e+00 9.312939999999999330e+00 5.598779999999999646e+00 5.341719999999999580e+00 7.964480000000000004e+00 6.335410000000000430e+00 1.072009999999999907e+00 9.284700000000000841e+00 7.155260000000000176e+00 3.203819999999999890e+00 1.061420000000000030e+01 7.973720000000000141e+00 5.340349999999999930e+00 8.036929999999999907e+00 1.591990000000000016e+00 1.062910000000000021e+00 9.364509999999999224e+00 2.417699999999999960e+00 3.197020000000000195e+00 1.069323999999999941e+01 3.245810000000000084e+00 5.339680000000000426e+00 9.346629999999999328e+00 3.960550000000000015e+00 1.070729999999999960e+00 1.067434000000000083e+01 4.785610000000000142e+00 3.202620000000000022e+00 1.199222999999999928e+01 5.607510000000000439e+00 5.344129999999999825e+00 1.065170999999999957e+01 6.334760000000000169e+00 1.069280000000000008e+00 1.198080999999999996e+01 7.148150000000000226e+00 3.202570000000000139e+00 1.330827000000000027e+01 7.978740000000000165e+00 5.334529999999999994e+00
2.089999999999999844e-03 1.309999999999999967e-03 2.500000000000000052e-03 9.391590000000000771e+00 8.253899999999999570e-01 2.137239999999999807e+00 6.572239999999999860e+00 8.744559999999999889e+00 4.275830000000000020e+00 9.375009999999999621e+00 2.373099999999999987e+00 5.080000000000000314e-03 1.069594000000000023e+01 3.191170000000000062e+00 2.134100000000000108e+00 1.202876000000000012e+01 4.010659999999999670e+00 4.273909999999999876e+00 6.593449999999999811e+00 7.202670000000000350e+00 6.405219999999999914e+00 3.947439999999999838e+00 5.561429999999999652e+00 2.135250000000000092e+00 1.332361000000000040e+01 6.382880000000000109e+00 4.275619999999999976e+00 6.672439999999999927e+00 2.470149999999999846e+00 6.406579999999999941e+00 4.017330000000000290e+00 8.225700000000000234e-01 2.132899999999999796e+00 9.252349999999999852e+00 8.742960000000000065e+00 4.267940000000000289e+00 3.992770000000000152e+00 2.366379999999999928e+00 1.010000000000000047e-03 5.311370000000000147e+00 3.187689999999999912e+00 2.132089999999999819e+00 6.649569999999999759e+00 4.008949999999999569e+00 4.270260000000000389e+00 9.282750000000000057e+00 7.198830000000000062e+00 6.405479999999999841e+00 6.619589999999999641e+00 5.551730000000000054e+00 2.138959999999999972e+00 7.959399999999999586e+00 6.384260000000000268e+00 4.265799999999999592e+00 9.363310000000000244e+00 2.468449999999999811e+00 6.404840000000000089e+00 1.061219999999999963e+01 7.922760000000000247e+00 2.135069999999999801e+00 1.195074999999999932e+01 8.746359999999999246e+00 4.267750000000000377e+00 6.685789999999999900e+00 2.367340000000000000e+00 5.999999999999999474e-04 8.009859999999999758e+00 3.192579999999999973e+00 2.131229999999999958e+00 9.338490000000000180e+00 4.013370000000000104e+00 4.272000000000000242e+00 7.984810000000000407e+00 4.738529999999999909e+00 2.429999999999999868e-03 9.315889999999999560e+00 5.559440000000000381e+00 2.133950000000000014e+00 1.064207999999999998e+01 6.379520000000000302e+00 4.271620000000000417e+00 2.655909999999999993e+00 1.596139999999999892e+00 1.064370000000000038e+00 3.985860000000000181e+00 2.411360000000000170e+00 3.207840000000000025e+00 5.317339999999999733e+00 3.233179999999999943e+00 5.335139999999999993e+00 3.965730000000000199e+00 3.966829999999999856e+00 1.064219999999999944e+00 5.291830000000000034e+00 4.784650000000000070e+00 3.201999999999999957e+00 6.619609999999999772e+00 5.611869999999999692e+00 5.339209999999999567e+00 5.262240000000000251e+00 6.333039999999999559e+00 1.073939999999999895e+00 6.598499999999999588e+00 7.147730000000000139e+00 3.198139999999999983e+00 7.922749999999999737e+00 7.971659999999999968e+00 5.334279999999999688e+00 5.348740000000000272e+00 1.595190000000000108e+00 1.075420000000000043e+00 6.677870000000000417e+00 2.416970000000000063e+00 3.204549999999999788e+00 8.009800000000000253e+00 3.237830000000000208e+00 5.333129999999999704e+00 6.646609999999999907e+00 3.960090000000000110e+00 1.067290000000000072e+00 7.987029999999999852e+00 4.788280000000000314e+00 3.201649999999999885e+00 9.313489999999999824e+00 5.602000000000000313e+00 5.342649999999999899e+00 7.962959999999999816e+00 6.335289999999999644e+00 1.070920000000000094e+00 9.284430000000000405e+00 7.158479999999999954e+00 3.202220000000000066e+00 1.061524000000000001e+01 7.973209999999999908e+00 5.339920000000000222e+00 8.037050000000000693e+00 1.592799999999999994e+00 1.065420000000000034e+00 9.365099999999999980e+00 2.417489999999999917e+00 3.198999999999999844e+00 1.069388000000000005e+01 3.245099999999999874e+00 5.337340000000000195e+00 9.347849999999999326e+00 3.960830000000000073e+00 1.069970000000000088e+00 1.067051999999999978e+01 4.784239999999999604e+00 3.201960000000000139e+00 1.199404999999999966e+01 5.603909999999999947e+00 5.346099999999999852e+00 1.065212000000000003e+01 6.334850000000000314e+00 1.068519999999999914e+00 1.198131000000000057e+01 7.146919999999999717e+00 3.201900000000000190e+00 1.330957000000000079e+01 7.977710000000000079e+00 5.336420000000000385e+00
1.217242000000000068e+01 7.050939999999999763e+00 1.129999999999999928e-03 9.355380000000000251e+00 7.354500000000000481e-01 2.216509999999999980e+00 6.679750000000000298e+00 8.519629999999999370e+00 4.430430000000000312e+00 5.231410000000000338e+00 4.549909999999999677e+00 6.649530000000000385e+00 2.652210000000000178e+00 3.084550000000000125e+00 2.208499999999999908e+00 1.201221999999999923e+01 3.821600000000000108e+00 4.435380000000000322e+00 1.081154000000000082e+01 4.709369999999999834e+00 3.389999999999999784e-03 1.209439000000000064e+01 5.438320000000000043e+00 2.219590000000000174e+00 5.314329999999999998e+00 6.170219999999999594e+00 4.440500000000000114e+00 6.550379999999999647e+00 2.203770000000000007e+00 6.652190000000000047e+00 8.080619999999999692e+00 7.785140000000000171e+00 2.216959999999999820e+00 9.363939999999999486e+00 8.517540000000000333e+00 4.439320000000000377e+00 7.918400000000000105e+00 4.554789999999999672e+00 6.652700000000000280e+00 5.345799999999999663e+00 3.083839999999999915e+00 2.217830000000000190e+00 6.628650000000000375e+00 3.815259999999999874e+00 4.436790000000000234e+00 5.427369999999999806e+00 4.698889999999999567e+00 9.700000000000000505e-04 6.718090000000000117e+00 5.437630000000000408e+00 2.212759999999999838e+00 8.002290000000000347e+00 6.162160000000000082e+00 4.434650000000000425e+00 9.484420000000000073e+00 7.050250000000000128e+00 4.150000000000000043e-03 6.666859999999999786e+00 7.345800000000000107e-01 2.217509999999999870e+00 1.205075000000000074e+01 8.518240000000000478e+00 4.430539999999999701e+00 6.748669999999999725e+00 2.350680000000000103e+00 5.100000000000000366e-04 8.042249999999999233e+00 3.089640000000000164e+00 2.212470000000000159e+00 9.321989999999999554e+00 3.820969999999999978e+00 4.434960000000000235e+00 1.197730999999999923e+01 6.904950000000000365e+00 6.651209999999999845e+00 9.395939999999999515e+00 5.441690000000000360e+00 2.214679999999999982e+00 1.069077000000000055e+01 6.179149999999999920e+00 4.438930000000000042e+00 2.671920000000000073e+00 1.544950000000000045e+00 1.106219999999999981e+00 3.956869999999999887e+00 2.283459999999999823e+00 3.322389999999999954e+00 5.245720000000000383e+00 3.009269999999999889e+00 5.543079999999999785e+00 4.040619999999999656e+00 3.895129999999999981e+00 1.108230000000000048e+00 5.326880000000000059e+00 4.628639999999999866e+00 3.325940000000000119e+00 6.614250000000000185e+00 5.362809999999999633e+00 5.544179999999999886e+00 5.407180000000000319e+00 6.246850000000000236e+00 1.110759999999999970e+00 6.695570000000000022e+00 6.982569999999999943e+00 3.321200000000000152e+00 7.983290000000000219e+00 7.717340000000000089e+00 5.538990000000000080e+00 5.367029999999999745e+00 1.543970000000000065e+00 1.108540000000000081e+00 6.655039999999999623e+00 2.282270000000000021e+00 3.330449999999999910e+00 7.933449999999999669e+00 3.007730000000000015e+00 5.548219999999999708e+00 6.730500000000000149e+00 3.893440000000000012e+00 1.108160000000000034e+00 8.015579999999999927e+00 4.631569999999999965e+00 3.328559999999999963e+00 9.304130000000000678e+00 5.365050000000000097e+00 5.546450000000000102e+00 8.097519999999999385e+00 6.242619999999999614e+00 1.107850000000000001e+00 9.386449999999999960e+00 6.979239999999999888e+00 3.326639999999999819e+00 1.067401000000000089e+01 7.714990000000000236e+00 5.542130000000000223e+00 8.059710000000000818e+00 1.543989999999999974e+00 1.115499999999999936e+00 9.337320000000000064e+00 2.278129999999999988e+00 3.329330000000000123e+00 1.062772999999999968e+01 3.014339999999999797e+00 5.545539999999999914e+00 9.419499999999999318e+00 3.894060000000000077e+00 1.108419999999999961e+00 1.070880000000000010e+01 4.627810000000000201e+00 3.326709999999999834e+00 1.200000999999999962e+01 5.361369999999999969e+00 5.550539999999999807e+00 1.079421999999999926e+01 6.250320000000000320e+00 1.106379999999999919e+00 1.207652000000000037e+01 6.980690000000000062e+00 3.328320000000000167e+00 1.336259000000000086e+01 7.713969999999999771e+00 5.544159999999999755e+00
1.217206999999999972e+01 7.048149999999999693e+00 3.119999999999999944e-03 9.352009999999999934e+00 7.342400000000000038e-01 2.216909999999999936e+00 2.572960000000000136e+00 1.468159999999999910e+00 4.432070000000000398e+00 5.228780000000000427e+00 4.550390000000000157e+00 6.648859999999999992e+00 2.650609999999999911e+00 3.084220000000000184e+00 2.208369999999999944e+00 1.201192999999999955e+01 3.821779999999999955e+00 4.434949999999999726e+00 1.080775000000000041e+01 4.711050000000000182e+00 8.800000000000000313e-04 1.209473999999999982e+01 5.439090000000000202e+00 2.218690000000000051e+00 1.338233999999999924e+01 6.174140000000000406e+00 4.438290000000000290e+00 2.696790000000000020e+00 3.860000000000000150e-03 1.080000000000000014e-03 8.077360000000000539e+00 7.785700000000000287e+00 2.213849999999999874e+00 9.363419999999999632e+00 8.517960000000000420e+00 4.440279999999999561e+00 7.918730000000000047e+00 4.551280000000000214e+00 6.651620000000000310e+00 5.345229999999999926e+00 3.086980000000000057e+00 2.221459999999999990e+00 6.633320000000000327e+00 3.816980000000000040e+00 4.436860000000000248e+00 9.285090000000000288e+00 6.901909999999999989e+00 6.651970000000000383e+00 6.719739999999999824e+00 5.436770000000000103e+00 2.213799999999999990e+00 8.001310000000000144e+00 6.160870000000000068e+00 4.433639999999999581e+00 9.485509999999999664e+00 7.048140000000000072e+00 3.710000000000000190e-03 6.666140000000000398e+00 7.360999999999999766e-01 2.217940000000000023e+00 1.204838999999999949e+01 8.517020000000000479e+00 4.432349999999999568e+00 6.749660000000000437e+00 2.349130000000000162e+00 3.820000000000000045e-03 8.042650000000000077e+00 3.088239999999999874e+00 2.217200000000000060e+00 9.320309999999999206e+00 3.819139999999999979e+00 4.435920000000000307e+00 1.197635999999999967e+01 6.905569999999999986e+00 6.650079999999999991e+00 9.393209999999999837e+00 5.443229999999999791e+00 2.218249999999999833e+00 1.069034000000000084e+01 6.178930000000000256e+00 4.437389999999999723e+00 2.671660000000000146e+00 1.547360000000000069e+00 1.105599999999999916e+00 3.957100000000000062e+00 2.285039999999999960e+00 3.320800000000000196e+00 5.245009999999999728e+00 3.010369999999999990e+00 5.543899999999999828e+00 4.042300000000000004e+00 3.894050000000000011e+00 1.109029999999999960e+00 5.328859999999999708e+00 4.626520000000000188e+00 3.327109999999999790e+00 6.611369999999999969e+00 5.363150000000000084e+00 5.545560000000000045e+00 5.408170000000000144e+00 6.245820000000000149e+00 1.109180000000000055e+00 6.696449999999999569e+00 6.985380000000000145e+00 3.318779999999999841e+00 7.982280000000000264e+00 7.716580000000000439e+00 5.540099999999999802e+00 5.367609999999999992e+00 1.544470000000000010e+00 1.108919999999999906e+00 6.658050000000000246e+00 2.284400000000000208e+00 3.328980000000000050e+00 7.934969999999999857e+00 3.008179999999999854e+00 5.547089999999999854e+00 6.731209999999999916e+00 3.896199999999999886e+00 1.108899999999999997e+00 8.017039999999999722e+00 4.632159999999999833e+00 3.327929999999999833e+00 9.303699999999999193e+00 5.362849999999999895e+00 5.547069999999999723e+00 8.097839999999999705e+00 6.242250000000000298e+00 1.105560000000000098e+00 9.387249999999999872e+00 6.979659999999999975e+00 3.324650000000000105e+00 1.067568999999999946e+01 7.714400000000000368e+00 5.540429999999999744e+00 8.058849999999999625e+00 1.542519999999999891e+00 1.115059999999999940e+00 9.337619999999999365e+00 2.278399999999999981e+00 3.330550000000000122e+00 1.062725000000000009e+01 3.013560000000000016e+00 5.548750000000000071e+00 9.418760000000000687e+00 3.888549999999999951e+00 1.109080000000000066e+00 1.070977000000000068e+01 4.629400000000000404e+00 3.325790000000000024e+00 1.199886000000000053e+01 5.359810000000000407e+00 5.550250000000000128e+00 1.079270999999999958e+01 6.249839999999999840e+00 1.107410000000000005e+00 1.207497000000000043e+01 6.980000000000000426e+00 3.327980000000000160e+00 1.336575999999999986e+01 7.713930000000000398e+00 5.543619999999999770e+00
8.329069999999999752e+00 9.052519999999999456e+00 6.430860000000000021e+00 5.640799999999999592e+00 7.634990000000000165e+00 2.148909999999999876e+00 1.097082999999999942e+01 1.419519999999999893e+00 4.291619999999999990e+00 5.465709999999999624e+00 4.438769999999999882e+00 6.434910000000000352e+00 2.774329999999999963e+00 3.018940000000000179e+00 2.142809999999999881e+00 1.240311999999999948e+01 3.728060000000000151e+00 4.291229999999999656e+00 6.892439999999999678e+00 6.747069999999999901e+00 6.433569999999999567e+00 4.211289999999999978e+00 5.334740000000000038e+00 2.144410000000000149e+00 1.382980000000000054e+01 6.042010000000000325e+00 4.296719999999999651e+00 7.064549999999999663e+00 6.922419999999999796e+00 5.199999999999999761e-03 8.402070000000000149e+00 7.637450000000000294e+00 2.147050000000000125e+00 9.744360000000000355e+00 8.345459999999999212e+00 4.294590000000000352e+00 4.197309999999999874e+00 2.312409999999999854e+00 1.350000000000000071e-03 5.538190000000000168e+00 3.018569999999999975e+00 2.149709999999999788e+00 6.878289999999999793e+00 3.727489999999999970e+00 4.289690000000000225e+00 5.628449999999999953e+00 4.619679999999999787e+00 5.100000000000000366e-04 6.971639999999999837e+00 5.327890000000000015e+00 2.145469999999999988e+00 8.310560000000000613e+00 6.043669999999999654e+00 4.297159999999999869e+00 5.522509999999999586e+00 2.150000000000000001e-03 1.500000000000000031e-03 6.869270000000000209e+00 7.110999999999999543e-01 2.146980000000000111e+00 1.251099999999999923e+01 8.342779999999999418e+00 4.294080000000000119e+00 6.960659999999999847e+00 2.308809999999999807e+00 2.949999999999999931e-03 8.300150000000000361e+00 3.019400000000000084e+00 2.145669999999999966e+00 9.635640000000000427e+00 3.725000000000000089e+00 4.289310000000000400e+00 8.391360000000000596e+00 4.616319999999999979e+00 1.750000000000000036e-03 9.725440000000000751e+00 5.327300000000000146e+00 2.148400000000000087e+00 1.107382999999999917e+01 6.035800000000000054e+00 4.285619999999999763e+00 2.775090000000000057e+00 1.516790000000000083e+00 1.072049999999999947e+00 4.108060000000000045e+00 2.221839999999999815e+00 3.217459999999999987e+00 5.458800000000000097e+00 2.931189999999999962e+00 5.364130000000000287e+00 4.203330000000000233e+00 3.812539999999999818e+00 1.068270000000000053e+00 5.537110000000000198e+00 4.526309999999999611e+00 3.220740000000000158e+00 6.884579999999999700e+00 5.237440000000000317e+00 5.367340000000000444e+00 5.636260000000000048e+00 6.129540000000000433e+00 1.074580000000000091e+00 6.981679999999999886e+00 6.841549999999999798e+00 3.221649999999999903e+00 8.318849999999999412e+00 7.545709999999999695e+00 5.366050000000000431e+00 5.530300000000000438e+00 1.509889999999999954e+00 1.073299999999999921e+00 6.876739999999999853e+00 2.220779999999999976e+00 3.222760000000000069e+00 8.211019999999999541e+00 2.931389999999999940e+00 5.363679999999999559e+00 6.961430000000000007e+00 3.818719999999999892e+00 1.074249999999999927e+00 8.311859999999999360e+00 4.532029999999999781e+00 3.214300000000000157e+00 9.646789999999999310e+00 5.238030000000000186e+00 5.364489999999999981e+00 8.396240000000000592e+00 6.129330000000000389e+00 1.071209999999999996e+00 9.739530000000000243e+00 6.837909999999999933e+00 3.219629999999999992e+00 1.108225999999999978e+01 7.543720000000000425e+00 5.365409999999999791e+00 8.288629999999999498e+00 1.514869999999999939e+00 1.074130000000000029e+00 9.637130000000000862e+00 2.218879999999999963e+00 3.225519999999999943e+00 1.097038000000000046e+01 2.932859999999999800e+00 5.369950000000000223e+00 9.730629999999999669e+00 3.814929999999999932e+00 1.073930000000000051e+00 1.107119999999999926e+01 4.525649999999999729e+00 3.218370000000000175e+00 1.240991000000000000e+01 5.238299999999999734e+00 5.364370000000000083e+00 1.116164999999999985e+01 6.132690000000000197e+00 1.068480000000000096e+00 1.250672999999999924e+01 6.837780000000000413e+00 3.210080000000000044e+00 1.384244999999999948e+01 7.547089999999999854e+00 5.364980000000000082e+00