-4.308494744399999945e+02
-4.308435981299999753e+02
-4.245267298300000220e+02
-4.245237912800000117e+02
-4.292695027500000151e+02
-4.292626992599999767e+02
-4.246887734399999772e+02
-4.246813111700000150e+02
-4.283654250600000069e+02
-4.283560773699999800e+02
-4.321234967699999743e+02
-4.321248906399999896e+02
-4.209701665299999718e+02
-4.209635428999999931e+02
-4.324668407199999933e+02
-4.324624145600000134e+02
-4.327848126999999749e+02
-4.327756165299999793e+02
-4.358730406700000231e+02
-4.358681031400000165e+02
-4.378290394599999900e+02
-4.378266554799999994e+02
-4.364061907399999996e+02
-4.364020392900000047e+02
-4.355837178099999960e+02
-4.355769774099999836e+02
-4.374366148199999884e+02
-4.374316921000000207e+02
-4.360401675400000272e+02
-4.360345927600000095e+02
-4.373638733899999806e+02
-4.373596504299999879e+02
-4.377981431200000202e+02
-4.377930391099999952e+02
-4.368198470199999974e+02
-4.368189471800000092e+02
-4.366106703899999957e+02
-4.366058626099999742e+02
-4.368530394100000080e+02
-4.368492420700000025e+02
-4.358303938099999755e+02
-4.358259448000000020e+02
-4.370014430599999855e+02
-4.369976974200000086e+02
-4.369058607299999721e+02
-4.369008685399999763e+02
-4.340391657900000268e+02
-4.340369788599999765e+02
-4.298532708700000171e+02
-4.298505061199999773e+02
-4.335936664399999927e+02
-4.335893913500000281e+02
-4.342700321699999790e+02
-4.342685581700000057e+02
-4.312431950600000050e+02
-4.312412500199999954e+02
-4.278209832800000072e+02
-4.278181685000000130e+02
