4.831300000000000178e-02 1.616940000000000044e-01 2.521699999999999983e-02 1.936690000000000078e-01 -8.334099999999999842e-02 2.768000000000000061e-03 -1.304800000000000057e-02 2.995999999999999965e-03 -5.578400000000000025e-02 -1.851180000000000048e-01 1.403830000000000078e-01 1.088599999999999984e-01 8.734699999999999409e-02 -4.057899999999999702e-02 -6.204500000000000293e-02 1.043540000000000023e-01 -6.107999999999999714e-03 7.827000000000000624e-03 -1.190510000000000040e-01 -1.370999999999999996e-01 1.217659999999999992e-01 -2.132149999999999879e-01 -9.862999999999999545e-02 1.452400000000000080e-01 -1.968769999999999964e-01 7.035500000000000087e-02 2.963299999999999962e-02 -2.966900000000000093e-02 -6.224299999999999972e-02 4.671700000000000158e-02 -1.538700000000000068e-01 -1.984849999999999948e-01 -8.692500000000000226e-02 -1.112960000000000060e-01 9.758600000000000607e-02 1.393570000000000086e-01 5.055199999999999971e-02 8.099499999999999755e-02 5.930599999999999761e-02 -1.695999999999999938e-02 1.221089999999999953e-01 4.128500000000000225e-02 -2.757470000000000199e-01 -1.102719999999999950e-01 1.598700000000000121e-02 -5.189200000000000063e-02 1.076599999999999953e-02 -1.552199999999999934e-02 -5.448299999999999671e-02 9.941200000000000037e-02 2.304199999999999998e-02 -5.909199999999999869e-02 1.058000000000000052e-01 2.461800000000000099e-02 -1.542729999999999935e-01 1.976930000000000076e-01 7.280000000000000360e-02 7.200999999999999936e-03 -5.795199999999999657e-02 -3.717299999999999771e-02 -1.745450000000000057e-01 -1.757209999999999883e-01 -9.812999999999999501e-02 1.634940000000000004e-01 -1.010749999999999982e-01 5.226599999999999996e-02 5.187499999999999750e-02 -1.029830000000000051e-01 -9.249400000000000677e-02 1.031119999999999953e-01 -1.532930000000000126e-01 1.060780000000000056e-01 1.292230000000000045e-01 -1.688360000000000138e-01 -9.961200000000000609e-02 1.159300000000000053e-01 1.171760000000000024e-01 -2.433400000000000007e-01 1.356819999999999971e-01 6.743200000000000582e-02 -5.862599999999999756e-02 3.882700000000000040e-02 8.117299999999999516e-02 -4.106400000000000328e-02 -9.261600000000000388e-02 -5.823300000000000004e-02 6.817700000000000149e-02 -1.353000000000000036e-02 -7.395799999999999597e-02 -3.312699999999999673e-02 1.697099999999999997e-01 -1.614349999999999952e-01 -1.884959999999999969e-01 2.158099999999999949e-02 -3.853600000000000081e-02 1.347800000000000040e-02 6.752700000000000369e-02 1.557300000000000073e-01 1.056229999999999947e-01 1.207710000000000033e-01 -2.660900000000000071e-02 -1.563299999999999967e-01 9.759099999999999719e-02 1.655699999999999880e-02 -2.792199999999999890e-02 1.316859999999999975e-01 -2.963899999999999868e-02 -2.957900000000000112e-02 -1.403490000000000015e-01 5.496299999999999797e-02 -1.939579999999999915e-01 1.568450000000000122e-01 1.824540000000000051e-01 1.270390000000000130e-01 1.903849999999999987e-01 -8.799300000000000177e-02 3.356900000000000162e-02 -1.434499999999999942e-01 2.638499999999999873e-02 -3.419000000000000164e-03 8.104500000000000592e-02 -1.253990000000000105e-01 -9.273399999999999699e-02 -1.745740000000000069e-01 -1.429640000000000077e-01 2.037420000000000064e-01 4.834000000000000102e-02 1.540439999999999865e-01 -9.917999999999999733e-03 -2.943499999999999936e-02 1.341930000000000067e-01 4.234199999999999769e-02 3.029099999999999848e-02 1.554500000000000048e-01 -2.367100000000000107e-02 1.213900000000000048e-02 8.792400000000000215e-02 -1.072749999999999954e-01 -9.231899999999999828e-02 1.463679999999999981e-01 1.239669999999999939e-01 -5.778900000000000009e-02 3.891300000000000314e-02 -6.878599999999999992e-02 -8.778500000000000192e-02 -1.193940000000000001e-01 6.065899999999999764e-02 -1.528200000000000044e-02 2.987000000000000072e-03 -1.305199999999999937e-02 1.077430000000000054e-01 -5.452200000000000102e-02 -6.303200000000000469e-02 2.131500000000000061e-02 -1.167789999999999939e-01 1.067739999999999939e-01 4.989000000000000379e-03 -5.765699999999999992e-02 1.326420000000000099e-01 1.646380000000000066e-01 7.812600000000000100e-02 -1.387680000000000025e-01
8.187300000000000133e-02 1.940469999999999973e-01 5.676900000000000002e-02 1.551029999999999909e-01 -1.103829999999999950e-01 6.457000000000000066e-03 4.536000000000000101e-03 1.053280000000000050e-01 -6.223499999999999865e-02 -2.511149999999999771e-01 1.215480000000000033e-01 2.261660000000000059e-01 1.297049999999999870e-01 9.020999999999999505e-03 -1.469299999999999946e-02 5.149299999999999711e-02 -1.129440000000000027e-01 -1.994009999999999949e-01 -9.820800000000000363e-02 -8.170600000000000085e-02 1.986819999999999975e-01 -2.336840000000000028e-01 -1.275219999999999965e-01 9.697600000000000664e-02 -1.665020000000000111e-01 1.626980000000000093e-01 -4.890699999999999908e-02 -5.097700000000000148e-02 -1.299470000000000069e-01 6.186699999999999838e-02 -5.182099999999999901e-02 -2.198829999999999951e-01 -8.254599999999999438e-02 -1.117220000000000019e-01 9.532699999999999507e-02 8.602700000000000624e-02 1.179039999999999949e-01 1.744880000000000042e-01 5.394600000000000090e-02 -2.914500000000000077e-02 1.251160000000000050e-01 7.534000000000000419e-02 -1.794679999999999886e-01 -9.451400000000000079e-02 -4.368099999999999761e-02 -1.523300000000000001e-02 -7.073000000000000294e-03 7.637800000000000145e-02 -2.951000000000000151e-02 1.140229999999999994e-01 -9.594999999999999363e-02 5.697999999999999940e-03 9.426700000000000357e-02 -1.969200000000000117e-02 -8.488800000000000512e-02 1.660689999999999944e-01 9.578599999999999615e-02 -3.776700000000000196e-02 -1.645999999999999894e-02 -7.509000000000000050e-03 -2.114719999999999933e-01 -2.413889999999999925e-01 -3.135999999999999899e-02 1.245089999999999947e-01 -1.603999999999999870e-01 9.387500000000000011e-02 -1.051979999999999998e-01 -1.403399999999999925e-01 -4.136000000000000093e-02 1.223869999999999958e-01 -9.923200000000000076e-02 1.482680000000000109e-01 7.176100000000000534e-02 -1.849100000000000049e-02 -1.792449999999999877e-01 1.760589999999999933e-01 7.267400000000000249e-02 -2.288570000000000049e-01 1.908140000000000114e-01 1.785009999999999930e-01 -3.500099999999999739e-02 8.469300000000000439e-02 8.994999999999999524e-03 -7.725999999999999535e-02 -2.290480000000000016e-01 -8.909899999999999765e-02 1.325909999999999866e-01 4.246500000000000274e-02 -9.162599999999999911e-02 3.569499999999999756e-02 1.739799999999999958e-01 -1.152109999999999940e-01 -2.706279999999999797e-01 2.972800000000000095e-02 7.722199999999999898e-02 9.150400000000000200e-02 5.007899999999999852e-02 1.068790000000000018e-01 6.892600000000000116e-02 1.097520000000000023e-01 -4.019699999999999662e-02 -9.203699999999999382e-02 2.634999999999999842e-02 -4.412499999999999756e-02 -2.967399999999999899e-02 1.080610000000000043e-01 -2.606800000000000089e-02 -1.134499999999999918e-02 -1.876929999999999987e-01 -1.125499999999999938e-02 -2.296960000000000113e-01 2.854300000000000170e-01 1.731409999999999894e-01 1.302899999999999892e-01 9.200700000000000545e-02 -1.191360000000000058e-01 3.636899999999999855e-02 -1.039749999999999980e-01 5.301700000000000162e-02 4.242200000000000137e-02 1.940599999999999964e-02 -9.222600000000000242e-02 -5.391100000000000059e-02 -2.932640000000000247e-01 -2.295709999999999973e-01 1.295650000000000135e-01 7.957999999999999796e-03 1.597270000000000079e-01 4.987699999999999773e-02 -1.162480000000000041e-01 1.064670000000000061e-01 3.452700000000000213e-02 8.150200000000000500e-02 2.214220000000000077e-01 -5.593299999999999661e-02 4.592199999999999754e-02 1.383649999999999880e-01 -1.589530000000000109e-01 -5.056399999999999784e-02 1.152170000000000000e-01 1.472400000000000098e-01 -5.842499999999999777e-02 -1.418299999999999943e-02 -7.400800000000000434e-02 -9.757100000000000495e-02 -9.947599999999999498e-02 -5.414999999999999675e-03 -1.544899999999999919e-02 -3.591000000000000008e-03 9.679000000000000103e-03 1.992589999999999917e-01 -5.200899999999999967e-02 -6.972299999999999331e-02 3.512900000000000050e-02 -1.384150000000000102e-01 8.135599999999999776e-02 4.986399999999999860e-02 -9.183299999999999796e-02 1.387559999999999905e-01 1.357480000000000075e-01 4.507499999999999701e-02 -1.862479999999999969e-01
-7.859399999999999720e-02 3.389899999999999858e-02 -4.556799999999999740e-02 1.670979999999999965e-01 -1.867489999999999983e-01 -3.979400000000000298e-02 -1.011670000000000069e-01 1.647869999999999890e-01 -1.546810000000000129e-01 -1.944609999999999950e-01 -1.016829999999999956e-01 -2.341459999999999930e-01 2.281529999999999947e-01 4.205999999999999669e-03 7.296999999999999320e-02 1.587999999999999828e-02 -3.782900000000000151e-02 2.459499999999999881e-02 -5.610500000000000209e-02 1.399170000000000136e-01 1.561500000000000041e-02 -2.343230000000000035e-01 -2.048099999999999921e-02 8.142099999999999338e-02 1.580890000000000073e-01 -3.821299999999999697e-02 -1.599889999999999923e-01 -9.128000000000000697e-03 -7.777699999999999891e-02 5.256099999999999661e-02 -2.093689999999999996e-01 -7.963599999999999846e-02 3.294600000000000306e-02 1.898650000000000060e-01 1.581069999999999975e-01 9.982800000000000007e-02 5.582199999999999662e-02 2.364000000000000216e-03 -1.069259999999999933e-01 1.527090000000000114e-01 7.099900000000000655e-02 1.407670000000000032e-01 5.421900000000000330e-02 2.910099999999999840e-02 -6.140999999999999931e-02 1.832999999999999994e-03 2.871200000000000141e-02 1.511000000000000017e-02 1.467279999999999973e-01 2.284730000000000094e-01 -1.141479999999999995e-01 -1.769360000000000099e-01 -2.653170000000000250e-01 9.723299999999999998e-02 8.400799999999999934e-02 -5.406000000000000215e-03 -7.425600000000000256e-02 2.056709999999999927e-01 1.582959999999999923e-01 -8.672199999999999354e-02 6.589000000000000239e-03 3.823100000000000109e-02 8.362400000000000388e-02 -1.351380000000000081e-01 -1.452019999999999977e-01 8.635800000000000420e-02 -7.645399999999999419e-02 2.205100000000000116e-02 1.006780000000000036e-01 3.250900000000000317e-02 -6.078800000000000175e-02 3.716300000000000159e-02 1.332089999999999941e-01 5.158399999999999791e-02 5.484399999999999692e-02 -1.489700000000000052e-02 3.186800000000000049e-02 9.965000000000000246e-02 -6.322700000000000542e-02 -7.067199999999999871e-02 -9.467799999999999827e-02 1.129219999999999946e-01 -6.877700000000000480e-02 7.352999999999999814e-02 -6.589200000000000612e-02 1.732269999999999921e-01 -1.061870000000000036e-01 -5.491100000000000148e-02 1.524929999999999897e-01 2.154199999999999865e-02 -1.185230000000000034e-01 -8.437799999999999467e-02 3.281699999999999895e-02 -2.026400000000000076e-02 -1.095020000000000021e-01 1.477420000000000122e-01 -3.281200000000000089e-02 -5.701099999999999918e-02 -3.656600000000000128e-02 3.052320000000000033e-01 6.148999999999999952e-03 -2.222270000000000079e-01 -5.235499999999999876e-02 4.298099999999999837e-02 7.861500000000000432e-02 -9.899999999999999946e-04 5.740399999999999670e-02 1.578650000000000053e-01 2.584099999999999939e-02 -4.839600000000000152e-02 -1.388959999999999917e-01 -5.721699999999999703e-02 -2.869599999999999929e-02 -1.618299999999999947e-02 -1.492650000000000088e-01 -2.788799999999999960e-02 1.518690000000000040e-01 1.588950000000000085e-01 7.313600000000000656e-02 8.569499999999999340e-02 -1.438520000000000076e-01 -8.785199999999999954e-02 -5.619600000000000289e-02 -1.193629999999999969e-01 2.329600000000000004e-01 -9.560200000000000642e-02 -2.063859999999999861e-01 -1.490009999999999946e-01 -1.550799999999999956e-01 1.170770000000000005e-01 -9.348299999999999665e-02 1.661699999999999983e-02 7.343999999999999834e-03 6.022600000000000176e-02 -7.679000000000000062e-03 5.478800000000000336e-02 6.714799999999999935e-02 1.131500000000000006e-01 5.587999999999999912e-02 -3.333900000000000058e-02 1.314319999999999933e-01 6.981400000000000106e-02 -2.019259999999999944e-01 -3.187600000000000156e-02 -1.018649999999999972e-01 1.104249999999999954e-01 -1.741759999999999975e-01 1.957800000000000165e-02 1.085400000000000080e-02 -2.790400000000000172e-02 2.976030000000000064e-01 5.645499999999999824e-02 -6.242299999999999932e-02 -6.844699999999999396e-02 -1.272139999999999938e-01 -1.088989999999999958e-01 -1.546410000000000007e-01 1.120619999999999949e-01 1.094809999999999950e-01 -1.607270000000000088e-01 -1.108979999999999966e-01 1.964559999999999917e-01
-4.659100000000000047e-02 -2.868599999999999969e-02 -1.129320000000000046e-01 1.816039999999999877e-01 -6.471499999999999475e-02 -3.025200000000000111e-02 -1.669730000000000103e-01 1.055490000000000039e-01 -2.124500000000000000e-01 -5.279999999999999971e-02 -1.467670000000000086e-01 -1.948380000000000112e-01 2.009259999999999935e-01 1.150999999999999896e-03 1.090949999999999975e-01 1.832999999999999994e-03 2.421500000000000041e-02 -9.360899999999999777e-02 -3.849999999999999950e-02 4.258200000000000179e-02 8.422000000000000319e-02 -4.395490000000000230e-01 -1.550259999999999971e-01 4.253900000000000042e-02 3.224540000000000184e-01 -1.053120000000000028e-01 -6.847599999999999520e-02 -4.149400000000000310e-02 -1.424090000000000078e-01 3.562799999999999995e-02 -1.482400000000000106e-01 -3.296899999999999831e-02 5.541999999999999704e-02 1.916879999999999973e-01 1.346980000000000122e-01 8.680599999999999428e-02 4.192499999999999699e-02 5.421700000000000130e-02 -9.195000000000000395e-02 1.832000000000000017e-01 6.620000000000000450e-04 1.650649999999999895e-01 -1.091199999999999982e-02 1.065770000000000051e-01 -2.250600000000000170e-02 -1.057030000000000053e-01 1.149570000000000036e-01 -1.053899999999999976e-02 1.796210000000000029e-01 2.050079999999999958e-01 -9.980799999999999395e-02 -2.039640000000000064e-01 -1.941559999999999953e-01 1.321370000000000045e-01 2.642900000000000110e-02 -1.305599999999999990e-02 3.569300000000000250e-02 2.365039999999999920e-01 9.631599999999999884e-02 3.863599999999999673e-02 -1.214490000000000014e-01 3.667299999999999727e-02 3.669399999999999745e-02 -1.279359999999999942e-01 -6.576200000000000101e-02 7.342600000000000515e-02 -8.122600000000000653e-02 -7.584799999999999875e-02 1.281700000000000061e-01 3.880399999999999822e-02 -2.391799999999999829e-02 -9.171100000000000085e-02 1.202820000000000000e-01 -6.692000000000000032e-03 -4.336999999999999710e-03 9.297900000000000609e-02 -1.827000000000000065e-03 5.878000000000000412e-03 2.149500000000000022e-02 -3.767899999999999722e-02 -6.019100000000000145e-02 7.703599999999999337e-02 -1.968500000000000111e-02 1.546900000000000011e-02 -7.293700000000000183e-02 1.627510000000000068e-01 -1.506599999999999884e-01 -1.303600000000000071e-02 1.404239999999999933e-01 1.339740000000000097e-01 -6.919699999999999462e-02 -1.188339999999999952e-01 5.136399999999999993e-02 -7.241000000000000041e-03 -7.544199999999999517e-02 1.799550000000000038e-01 -1.635100000000000095e-02 -1.187160000000000021e-01 -5.703400000000000136e-02 3.076690000000000258e-01 6.514999999999999958e-03 -2.798459999999999837e-01 -1.392819999999999891e-01 6.998400000000000454e-02 1.198810000000000014e-01 9.277399999999999536e-02 3.771599999999999953e-02 1.762269999999999948e-01 -2.906600000000000156e-02 1.198699999999999939e-02 -2.591069999999999762e-01 1.880099999999999827e-02 5.346000000000000058e-03 -7.087400000000000644e-02 -1.286700000000000066e-01 3.321000000000000167e-03 1.770819999999999894e-01 2.058099999999999929e-01 1.078240000000000032e-01 3.352600000000000025e-02 -1.498259999999999870e-01 -7.925300000000000400e-02 1.458100000000000021e-02 -1.326829999999999954e-01 1.269699999999999995e-01 -9.328999999999999793e-02 -1.664289999999999936e-01 -1.504850000000000076e-01 -1.694489999999999885e-01 1.111100000000000004e-01 -1.741840000000000055e-01 6.387700000000000322e-02 2.948999999999999885e-02 4.632599999999999912e-02 1.236899999999999979e-02 6.373199999999999699e-02 7.002999999999999503e-02 6.801500000000000601e-02 5.979199999999999793e-02 -4.321200000000000041e-02 8.945599999999999385e-02 5.419399999999999912e-02 -1.802539999999999976e-01 7.835000000000000298e-02 -1.566760000000000097e-01 1.364789999999999892e-01 -1.572070000000000134e-01 1.113380000000000064e-01 7.288300000000000334e-02 3.429999999999999889e-03 1.759489999999999943e-01 1.615679999999999894e-01 -1.099409999999999971e-01 -7.885899999999999854e-02 -9.349399999999999378e-02 -6.944300000000000472e-02 -1.991630000000000067e-01 1.466899999999999871e-01 1.348870000000000069e-01 -2.027200000000000113e-01 -8.151400000000000312e-02 1.285370000000000124e-01
9.282899999999999485e-02 1.300779999999999992e-01 -2.412900000000000114e-02 4.699699999999999711e-02 -1.932100000000000137e-02 6.388699999999999934e-02 -9.462199999999999778e-02 1.373159999999999936e-01 7.980900000000000494e-02 -4.986999999999999766e-02 9.520000000000000684e-02 7.648699999999999943e-02 7.315299999999999581e-02 8.349499999999999977e-02 2.281410000000000105e-01 -3.278799999999999770e-02 -2.362500000000000017e-02 -2.183200000000000071e-02 -1.075779999999999931e-01 -1.659430000000000072e-01 -1.275330000000000075e-01 -4.814999999999999836e-03 -2.716700000000000018e-02 2.671899999999999969e-02 -7.005500000000000616e-02 3.153299999999999853e-02 -1.539979999999999960e-01 -3.357700000000000268e-02 -3.703499999999999848e-02 1.151399999999999993e-02 -5.747000000000000372e-03 1.430369999999999975e-01 3.629999999999999872e-04 2.966999999999999846e-02 1.584500000000000075e-01 -1.306049999999999989e-01 2.180199999999999846e-02 -3.821399999999999797e-02 6.577000000000000381e-03 1.368199999999999972e-02 6.184300000000000214e-02 3.852699999999999875e-02 7.341100000000000403e-02 9.204299999999999982e-02 -4.292900000000000188e-02 -3.330999999999999933e-02 1.346310000000000007e-01 1.422200000000000027e-02 -1.984410000000000063e-01 -2.617399999999999935e-02 1.175429999999999947e-01 -1.217479999999999951e-01 2.444560000000000066e-01 3.072400000000000131e-02 -1.468000000000000034e-02 9.782599999999999629e-02 -1.937649999999999928e-01 5.676400000000000196e-02 8.409400000000000208e-02 4.097900000000000154e-02 2.643159999999999954e-01 1.463939999999999964e-01 1.610070000000000112e-01 7.854899999999999383e-02 -1.744499999999999870e-02 2.940100000000000005e-02 -1.567479999999999984e-01 -5.859899999999999831e-02 1.465039999999999953e-01 9.367999999999999591e-03 -7.701199999999999712e-02 2.722600000000000020e-02 2.561099999999999835e-02 -2.467000000000000009e-03 2.634000000000000057e-03 2.838979999999999837e-01 -1.507499999999999951e-01 1.123080000000000050e-01 5.538499999999999673e-02 -2.828620000000000023e-01 -9.156100000000000350e-02 1.113230000000000053e-01 -8.372699999999999587e-02 2.419299999999999923e-02 8.110499999999999654e-02 -1.867320000000000091e-01 1.511799999999999949e-02 -2.811900000000000163e-02 -3.760299999999999754e-02 5.370999999999999906e-03 2.467600000000000002e-02 8.958999999999999950e-03 -3.787399999999999795e-02 5.344900000000000345e-02 2.457000000000000156e-02 6.265999999999999868e-03 9.572100000000000053e-02 3.747400000000000037e-02 3.308300000000000129e-02 5.634399999999999825e-02 -1.083469999999999989e-01 -9.531599999999999795e-02 1.024840000000000056e-01 -1.062099999999999989e-01 8.990399999999999781e-02 1.666000000000000120e-02 -1.655889999999999862e-01 7.922099999999999975e-02 -1.021119999999999944e-01 -5.810499999999999693e-02 2.390300000000000064e-02 -1.974480000000000124e-01 -1.339370000000000005e-01 -1.615280000000000049e-01 8.670999999999999541e-02 8.048800000000000399e-02 -2.371699999999999850e-02 1.021000000000000033e-02 2.097200000000000106e-02 -1.390399999999999969e-02 7.810000000000000275e-02 -5.415099999999999775e-02 -6.417000000000000481e-02 3.116800000000000126e-02 -4.401399999999999757e-02 -5.074599999999999944e-02 4.592399999999999954e-02 6.663700000000000179e-02 1.213499999999999995e-02 -2.915999999999999842e-02 8.052000000000000129e-03 -3.449800000000000089e-02 -8.634300000000000308e-02 -5.391800000000000065e-02 8.786900000000000266e-02 -1.915959999999999885e-01 -2.432799999999999893e-02 -1.754749999999999921e-01 6.483200000000000074e-02 2.113500000000000101e-02 -3.683199999999999669e-02 -6.160999999999999810e-02 -6.457200000000000439e-02 -2.262700000000000128e-02 6.928099999999999536e-02 1.276799999999999879e-01 -2.196100000000000135e-02 -1.241629999999999956e-01 1.377420000000000033e-01 -3.959499999999999825e-02 -1.667460000000000053e-01 5.716999999999999860e-02 -1.545100000000000084e-01 -1.363739999999999952e-01 -9.751100000000000045e-02 9.400999999999999635e-02 -5.122800000000000270e-02 -9.433999999999999331e-02 -3.360999999999999838e-03 4.547299999999999953e-02 8.524000000000000327e-03 3.688700000000000312e-02
1.161490000000000022e-01 1.965540000000000065e-01 -6.461999999999999689e-02 1.172080000000000066e-01 2.567200000000000037e-02 3.337299999999999989e-02 -2.089900000000000091e-02 1.084999999999999992e-01 2.353200000000000083e-02 -6.445000000000000208e-03 6.294199999999999795e-02 8.975800000000000445e-02 1.115310000000000051e-01 1.109639999999999932e-01 2.184059999999999890e-01 -3.227599999999999913e-02 -2.423700000000000160e-02 6.910999999999999609e-03 -7.342999999999999701e-03 -2.741069999999999895e-01 -1.345000000000000058e-03 -2.125099999999999906e-02 -8.241199999999999914e-02 2.891700000000000173e-02 -1.661999999999999936e-02 -9.784199999999999842e-02 -1.124909999999999938e-01 -2.405819999999999903e-01 -1.089009999999999978e-01 -7.203600000000000281e-02 8.863699999999999357e-02 1.740919999999999968e-01 9.023200000000000665e-02 2.767000000000000015e-02 1.728929999999999911e-01 -1.560719999999999885e-01 1.614499999999999963e-02 1.022249999999999964e-01 7.062799999999999634e-02 3.354700000000000043e-02 -2.399000000000000091e-02 -6.734600000000000308e-02 -6.455900000000000527e-02 7.131200000000000039e-02 -2.380300000000000124e-02 4.426100000000000173e-02 1.066689999999999999e-01 7.249400000000000288e-02 -2.540669999999999873e-01 2.778999999999999786e-03 5.989400000000000279e-02 -1.147289999999999976e-01 3.064169999999999949e-01 7.298699999999999632e-02 -1.259900000000000082e-02 1.601009999999999933e-01 -1.549500000000000044e-01 3.592700000000000060e-02 5.877600000000000185e-02 2.478700000000000001e-02 3.156820000000000181e-01 1.675780000000000047e-01 1.200470000000000009e-01 3.831600000000000283e-02 4.039100000000000329e-02 -1.785300000000000081e-02 -1.715619999999999923e-01 -3.657300000000000134e-02 3.719000000000000083e-03 1.047870000000000051e-01 -3.380199999999999871e-02 3.510900000000000132e-02 4.550900000000000084e-02 -7.517300000000000371e-02 5.647499999999999742e-02 3.539249999999999896e-01 -2.302430000000000032e-01 -1.121300000000000074e-02 4.459500000000000269e-02 -3.121209999999999818e-01 -4.488799999999999735e-02 1.028670000000000001e-01 -1.611650000000000027e-01 2.588700000000000029e-02 7.710400000000000587e-02 -2.451790000000000080e-01 8.431299999999999906e-02 3.667999999999999733e-02 -1.141360000000000013e-01 -1.796299999999999980e-02 -4.004300000000000220e-02 5.761999999999999761e-02 -9.481399999999999550e-02 3.894299999999999845e-02 1.474590000000000067e-01 2.118099999999999844e-02 1.549800000000000066e-01 6.170899999999999996e-02 -5.183000000000000107e-02 7.575500000000000289e-02 -8.349199999999999677e-02 -4.989199999999999885e-02 7.833199999999999885e-02 -1.605850000000000055e-01 1.350379999999999914e-01 2.434700000000000059e-02 -1.702730000000000077e-01 2.807000000000000033e-03 -1.351749999999999896e-01 -8.229000000000000203e-02 3.508499999999999813e-02 -2.461599999999999899e-01 -1.734269999999999978e-01 -7.994500000000000217e-02 7.238500000000000489e-02 3.189299999999999774e-02 -9.823999999999999400e-03 1.247900000000000051e-02 -1.418299999999999943e-02 -2.796699999999999880e-02 6.269399999999999973e-02 -2.779300000000000173e-02 -1.593999999999999931e-02 1.591899999999999912e-02 -1.962999999999999901e-03 -9.477599999999999913e-02 6.385200000000000597e-02 6.997299999999999354e-02 5.335999999999999771e-02 -9.700300000000000589e-02 4.863699999999999968e-02 3.277900000000000258e-02 -1.262320000000000109e-01 -5.166999999999999718e-03 1.008619999999999933e-01 -1.767130000000000090e-01 -3.082999999999999977e-02 -1.133239999999999942e-01 4.287900000000000045e-02 -2.874799999999999925e-02 -1.426599999999999917e-02 -6.112599999999999978e-02 -7.336499999999999966e-02 -8.551000000000000267e-02 3.087799999999999920e-02 2.991779999999999995e-01 -1.985999999999999918e-02 -1.562790000000000012e-01 1.116370000000000001e-01 -1.837400000000000144e-02 -1.731119999999999881e-01 1.384950000000000070e-01 -1.853120000000000045e-01 -1.273440000000000127e-01 -1.155940000000000023e-01 9.300100000000000033e-02 -1.579500000000000001e-02 -6.575000000000000289e-02 9.646000000000000060e-03 -6.586999999999999800e-02 1.884100000000000011e-02 4.845999999999999613e-03
-1.094099999999999934e-01 2.938430000000000208e-01 2.005760000000000043e-01 4.751099999999999768e-02 2.052440000000000098e-01 -1.010069999999999996e-01 -4.174999999999999892e-03 1.033599999999999935e-01 7.252300000000000413e-02 -1.312190000000000023e-01 -5.397300000000000014e-02 5.720599999999999991e-02 6.679599999999999427e-02 6.088600000000000262e-02 1.073640000000000011e-01 -2.300699999999999967e-02 1.813400000000000081e-02 4.802300000000000318e-02 -1.805000000000000007e-02 5.500900000000000234e-02 1.856690000000000007e-01 -1.146490000000000009e-01 -3.151570000000000205e-01 -1.186689999999999967e-01 1.961080000000000045e-01 -2.173910000000000009e-01 -1.420990000000000031e-01 -3.711600000000000316e-02 2.483740000000000114e-01 -1.231430000000000025e-01 6.990699999999999692e-02 8.557599999999999929e-02 -1.799100000000000005e-02 6.898400000000000365e-02 8.054200000000000248e-02 -8.066099999999999659e-02 1.095499999999999946e-02 -1.420299999999999896e-01 -8.336799999999999766e-02 -5.826400000000000329e-02 -3.017999999999999849e-02 -1.052730000000000055e-01 4.091600000000000098e-02 1.050449999999999995e-01 9.629100000000000159e-02 4.562700000000000089e-02 -1.157090000000000063e-01 2.553899999999999920e-02 -4.596599999999999991e-02 2.973500000000000101e-02 1.235030000000000017e-01 2.936100000000000168e-02 -2.531869999999999954e-01 -1.420319999999999916e-01 4.274300000000000321e-02 -1.792799999999999949e-02 -2.078299999999999939e-02 -9.243899999999999340e-02 -1.680999999999999986e-03 -7.726600000000000135e-02 -1.103729999999999989e-01 1.532399999999999873e-01 -2.232800000000000062e-02 -1.230129999999999973e-01 6.265900000000000636e-02 -9.141000000000000514e-02 3.482099999999999779e-02 -2.745200000000000071e-02 3.692999999999999755e-02 1.262830000000000064e-01 1.605900000000000105e-01 1.542659999999999865e-01 6.139999999999999625e-04 -3.207999999999999914e-03 1.281900000000000053e-02 2.366580000000000072e-01 1.042500000000000024e-02 -9.168700000000000461e-02 -4.348999999999999568e-03 -1.061699999999999970e-02 1.590310000000000057e-01 -1.698099999999999887e-01 -3.299179999999999890e-01 3.424399999999999666e-02 9.843999999999999972e-02 -1.375629999999999908e-01 1.336529999999999940e-01 -1.289760000000000073e-01 -1.761500000000000010e-01 2.060100000000000126e-02 2.374400000000000122e-02 3.663109999999999977e-01 1.811580000000000135e-01 1.506520000000000081e-01 1.772410000000000097e-01 -5.063999999999999925e-03 -4.794600000000000251e-02 6.455700000000000327e-02 -2.179190000000000016e-01 2.517600000000000046e-02 1.232999999999999938e-03 -2.518600000000000005e-02 -1.481119999999999937e-01 -1.313370000000000093e-01 -8.395600000000000285e-02 1.760600000000000012e-02 1.229220000000000035e-01 -3.976500000000000173e-02 4.172499999999999820e-02 -3.356100000000000055e-02 1.404499999999999915e-01 -4.614100000000000146e-02 -1.308189999999999908e-01 -5.204199999999999798e-02 2.839200000000000057e-02 -1.541559999999999875e-01 -4.982999999999999582e-03 6.563800000000000190e-02 7.828699999999999548e-02 4.196400000000000130e-02 -1.788180000000000047e-01 2.908699999999999827e-02 5.657600000000000129e-02 5.873199999999999948e-02 4.427799999999999792e-02 -7.555299999999999516e-02 7.383999999999999939e-03 -7.369199999999999362e-02 6.637099999999999944e-02 1.981300000000000075e-02 4.830799999999999678e-02 -1.035299999999999936e-02 -8.788999999999999937e-03 1.351499999999999924e-02 -6.814199999999999424e-02 2.297569999999999890e-01 -2.474220000000000030e-01 -1.532099999999999955e-02 -9.533300000000000107e-02 -1.499399999999999900e-01 -1.886690000000000034e-01 1.759529999999999983e-01 -2.017019999999999924e-01 -1.468790000000000096e-01 -1.376259999999999983e-01 1.645050000000000123e-01 -3.278899999999999870e-02 -6.368699999999999362e-02 1.352170000000000039e-01 -6.218699999999999922e-02 1.766399999999999915e-02 5.049599999999999922e-02 -3.989800000000000291e-02 -2.740999999999999947e-03 -1.079719999999999985e-01 9.610200000000000686e-02 -6.466600000000000126e-02 8.227199999999999791e-02 2.195219999999999949e-01 -1.324900000000000036e-02 1.185899999999999975e-02 1.606399999999999842e-02