1.388873148713037722e+02 4.430604855382894058e+00 -2.117472835926589170e+01 4.430604855382894058e+00 1.141199472962663890e+02 1.095663452558125428e+01 -2.117472835926589170e+01 1.095663452558125428e+01 7.296169849937425056e+01
1.388975195735686725e+02 4.434181067575589275e+00 -2.117695387841268939e+01 4.434181067575589275e+00 1.141281259589624568e+02 1.095680035800148033e+01 -2.117695387841268939e+01 1.095680035800148033e+01 7.297248001005733897e+01
1.471873540454820954e+02 1.582457595917037629e+01 2.367220103430434985e+00 1.582457595917037629e+01 1.210802150539021795e+02 -1.223333564416168429e+01 2.367220103430434985e+00 -1.223333564416168429e+01 1.988946342320759584e+02
1.471969441793018802e+02 1.582427333003717074e+01 2.365956856063787139e+00 1.582427333003717074e+01 1.210867147023312924e+02 -1.223782235032598464e+01 2.365956856063787139e+00 -1.223782235032598464e+01 1.989034311107435542e+02
1.376889244580265768e+02 -6.451638595240993368e+00 2.348631654686357706e+01 -6.451638595240993368e+00 1.175496986642659607e+02 1.817602326451011763e+01 2.348631654686357706e+01 1.817602326451011763e+01 1.202386295200221014e+02
1.377038157021216023e+02 -6.446615754970844492e+00 2.347919002290381485e+01 -6.446615754970844492e+00 1.175618314826691062e+02 1.817319392813206491e+01 2.347919002290381485e+01 1.817319392813206491e+01 1.202572104834873556e+02
1.039746313765508461e+02 -1.647192468733354431e+01 1.888966726301502419e+01 -1.647192468733354431e+01 1.629627717001261828e+02 2.338106599653393758e+01 1.888966726301502419e+01 2.338106599653393758e+01 1.910412015239268158e+02
1.039867103312210190e+02 -1.647813718254493054e+01 1.890063659637192472e+01 -1.647813718254493054e+01 1.629917856445277948e+02 2.338723466054999633e+01 1.890063659637192472e+01 2.338723466054999633e+01 1.910533889031328272e+02
1.832164057683008593e+02 -9.990255905129609149e-01 1.843994599613969854e+01 -9.990255905129609149e-01 9.315588501643237862e+01 -7.187571214468273517e+00 1.843994599613969854e+01 -7.187571214468273517e+00 1.020577155494412409e+02
1.832346163531631760e+02 -9.951777175816660659e-01 1.843176305800676928e+01 -9.951777175816660659e-01 9.317852999695921312e+01 -7.184631505769073279e+00 1.843176305800676928e+01 -7.184631505769073279e+00 1.020775390718199134e+02
8.202601655424001592e+01 3.789196637074988327e+00 -8.888637440849327831e+00 3.789196637074988327e+00 1.355979326595287660e+02 -1.730151153842403744e+01 -8.888637440849327831e+00 -1.730151153842403744e+01 7.377720649410369447e+01
8.202631313752249298e+01 3.791034481022111713e+00 -8.892621867078606357e+00 3.791034481022111713e+00 1.355928591405900931e+02 -1.730239642625043217e+01 -8.892621867078606357e+00 -1.730239642625043217e+01 7.377507449788460292e+01
1.452680810600966481e+02 2.154523869871483654e+01 6.386058078008518102e+00 2.154523869871483654e+01 2.032355671754060609e+02 -1.479063212461590560e+01 6.386058078008518102e+00 -1.479063212461590560e+01 1.899475619932727000e+02
1.452858779857352545e+02 2.154581452773272687e+01 6.380375967544014593e+00 2.154581452773272687e+01 2.032532587937923836e+02 -1.479177706091218347e+01 6.380375967544014593e+00 -1.479177706091218347e+01 1.899585990895456007e+02
1.261678695469791194e+02 1.496867997264278038e+01 6.734931790417524766e+00 1.496867997264278038e+01 7.318321956012977125e+01 1.826105494683059405e+01 6.734931790417524766e+00 1.826105494683059405e+01 8.471058787613728214e+01
1.261701088848798520e+02 1.496943047979558727e+01 6.729960898885950726e+00 1.496943047979558727e+01 7.319899970403098166e+01 1.826653023764993122e+01 6.729960898885950726e+00 1.826653023764993122e+01 8.472091465962296297e+01
1.140363247731494596e+02 -4.714043529463734394e+00 -2.100323623585444111e+01 -4.714043529463734394e+00 7.252725261299978854e+01 2.051543027927653284e+01 -2.100323623585444111e+01 2.051543027927653284e+01 8.955556762946207527e+01
1.140562445514452605e+02 -4.714938415784621029e+00 -2.100716786755932475e+01 -4.714938415784621029e+00 7.255073237622239901e+01 2.051395591738720370e+01 -2.100716786755932475e+01 2.051395591738720370e+01 8.958231641730498040e+01
6.190087915573852229e+01 1.974934460623188670e+00 -4.377552928931410570e+00 1.974934460623188670e+00 7.983204830881966529e+01 1.353367895856412595e+01 -4.377552928931410570e+00 1.353367895856412595e+01 -5.820564754619592662e+00
6.192048370369663246e+01 1.976974612897213879e+00 -4.382466317151407331e+00 1.976974612897213879e+00 7.983996389330637555e+01 1.352299330638803809e+01 -4.382466317151407331e+00 1.352299330638803809e+01 -5.806415228228565262e+00
2.939754368906930537e+00 2.584111432915806805e+00 -1.056156726391858669e+01 2.584111432915806805e+00 3.467794157658547505e+01 4.301504832242748932e+00 -1.056156726391858669e+01 4.301504832242748932e+00 -1.710377420256807834e+00
2.946805293466685960e+00 2.583079196914683795e+00 -1.055883882761353476e+01 2.583079196914683795e+00 3.468399252251913367e+01 4.300408081491554846e+00 -1.055883882761353476e+01 4.300408081491554846e+00 -1.701084608132113596e+00
8.180494645790517438e+01 -1.444817219503707584e+01 -5.622946165594292722e+00 -1.444817219503707584e+01 1.802296583475178338e+01 7.581233434062514043e+00 -5.622946165594292722e+00 7.581233434062514043e+00 -8.251543003356450967e+00
8.181657397967431677e+01 -1.444957379698396771e+01 -5.623751955477616526e+00 -1.444957379698396771e+01 1.803974568727327465e+01 7.580380399169744265e+00 -5.623751955477616526e+00 7.580380399169744265e+00 -8.236734317617946388e+00
5.515674485317352804e+01 1.736283405056637141e+00 -7.490320041676582719e+00 1.736283405056637141e+00 9.167907949321802619e+01 -1.348130617545135834e+01 -7.490320041676582719e+00 -1.348130617545135834e+01 -1.538026561494657107e+00
5.517429134253342227e+01 1.740845903094758729e+00 -7.499224230306974270e+00 1.740845903094758729e+00 9.169916783573364683e+01 -1.347839459820024466e+01 -7.499224230306974270e+00 -1.347839459820024466e+01 -1.517935651450592838e+00
3.696818425546090481e+01 -7.627626673524609657e+00 -1.731026964207772068e+01 -7.627626673524609657e+00 1.971383057948256479e+01 1.320687137685753321e+01 -1.731026964207772068e+01 1.320687137685753321e+01 -1.591185046574737960e+01
3.698395116402257798e+01 -7.619976425813793419e+00 -1.731753389270712518e+01 -7.619976425813793419e+00 1.973248174401370036e+01 1.320726809608009589e+01 -1.731753389270712518e+01 1.320726809608009589e+01 -1.589408119732586400e+01
5.848981894936972736e+01 -2.019144818481820991e+01 -3.700158492513004216e+00 -2.019144818481820991e+01 7.063532766710333988e+01 -1.779215151884755386e+01 -3.700158492513004216e+00 -1.779215151884755386e+01 1.474167864561766805e+01
5.849963627017788781e+01 -2.018977255833472029e+01 -3.701392082562197317e+00 -2.018977255833472029e+01 7.065665078509948671e+01 -1.778634336569926688e+01 -3.701392082562197317e+00 -1.778634336569926688e+01 1.475777442578036691e+01
-3.838530790407638449e+01 -1.287927106540367994e+01 3.088214554114184551e+00 -1.287927106540367994e+01 -2.959071949634272158e+01 6.496032855454835442e+00 3.088214554114184551e+00 6.496032855454835442e+00 -1.519547738489210964e+01
-3.837082973457422952e+01 -1.287740099215752032e+01 3.087760515086284574e+00 -1.287740099215752032e+01 -2.957111919905707609e+01 6.498243457971922155e+00 3.087760515086284574e+00 6.498243457971922155e+00 -1.517740946932562629e+01
1.035168401529425353e+01 -1.276622062433521343e+01 -1.357382954342972781e+01 -1.276622062433521343e+01 -1.589074862580131864e+01 1.662981190458428316e+01 -1.357382954342972781e+01 1.662981190458428316e+01 -1.309733986871877853e+01
1.036675201276335834e+01 -1.276735897304912015e+01 -1.357162433650085553e+01 -1.276735897304912015e+01 -1.587475675111513063e+01 1.662939121049436153e+01 -1.357162433650085553e+01 1.662939121049436153e+01 -1.308146622831930195e+01
-5.605381263090531263e+01 1.180054496432452993e+01 8.350653554446502369e+00 1.180054496432452993e+01 -4.034467155742333944e+01 5.956086904093218948e+00 8.350653554446502369e+00 5.956086904093218948e+00 7.379132884172541651e+00
-5.604814873235785910e+01 1.180200074547728839e+01 8.349976843676273575e+00 1.180200074547728839e+01 -4.033786464320517240e+01 5.957244136376758981e+00 8.349976843676273575e+00 5.957244136376758981e+00 7.384606280108205745e+00
-2.001862952079197910e+01 1.614294008646610123e+01 6.007718236063629647e+00 1.614294008646610123e+01 8.182654777909572630e+00 -1.270222662799304025e+01 6.007718236063629647e+00 -1.270222662799304025e+01 -7.096612137546023291e+01
-2.000199905301812109e+01 1.614566838978232255e+01 6.003372216035503861e+00 1.614566838978232255e+01 8.197262391511278778e+00 -1.270038226095372558e+01 6.003372216035503861e+00 -1.270038226095372558e+01 -7.094999803779396075e+01
-6.142269559385595556e+01 -8.988800008725114310e+00 2.228232813110497368e+00 -8.988800008725114310e+00 -6.316369631566622900e+00 -1.214439471848802077e+00 2.228232813110497368e+00 -1.214439471848802077e+00 9.151965451108072358e+00
-6.141181265380927812e+01 -8.987406632818260022e+00 2.225412350589363264e+00 -8.987406632818260022e+00 -6.300803712413632240e+00 -1.211284711479048148e+00 2.225412350589363264e+00 -1.211284711479048148e+00 9.163592835943701331e+00
-1.459919298061919513e+01 2.118281826536595691e+00 -1.278649719886943537e+01 2.118281826536595691e+00 -8.617738322579182864e+01 2.090052535452200644e+01 -1.278649719886943537e+01 2.090052535452200644e+01 5.190131677454739467e+00
-1.458615305138198615e+01 2.122724596384000240e+00 -1.279127403303055743e+01 2.122724596384000240e+00 -8.616545398901646990e+01 2.089701339635213984e+01 -1.279127403303055743e+01 2.089701339635213984e+01 5.202243650264952279e+00
-4.059069287088879463e+01 -1.956822933452185964e+01 -7.632367385362376133e+00 -1.956822933452185964e+01 -8.073134884310180226e+00 7.395945041425137312e+00 -7.632367385362376133e+00 7.395945041425137312e+00 -3.916583785645300253e+01
-4.058042168156784868e+01 -1.956721616095625649e+01 -7.635176380613074798e+00 -1.956721616095625649e+01 -8.063962248349691109e+00 7.395293308991083947e+00 -7.635176380613074798e+00 7.395293308991083947e+00 -3.915877694741856629e+01
-2.591672893966262947e+01 -1.426567834275616775e+01 7.630382610667937548e+00 -1.426567834275616775e+01 -3.399824773237714481e+01 -9.814378539636486209e+00 7.630382610667937548e+00 -9.814378539636486209e+00 -4.218770265041978718e+01
-2.589335396337405015e+01 -1.426272743481837324e+01 7.625475901745134344e+00 -1.426272743481837324e+01 -3.398028418784620897e+01 -9.817659238062951488e+00 7.625475901745134344e+00 -9.817659238062951488e+00 -4.216421869988277393e+01
-7.727151456994955936e+01 1.507901538834185295e+01 7.748857348746270191e+00 1.507901538834185295e+01 -8.495933697215998848e+01 4.806208966538745742e+00 7.748857348746270191e+00 4.806208966538745742e+00 -5.220884615980089194e+01
-7.726307830382705788e+01 1.508032399407432145e+01 7.749684314868870771e+00 1.508032399407432145e+01 -8.494763222088624843e+01 4.809129095997307424e+00 7.749684314868870771e+00 4.809129095997307424e+00 -5.220216378886148334e+01
-8.935120441330614938e+01 -2.456331669200609635e+00 1.973302412707167663e+00 -2.456331669200609635e+00 -5.472505107682520276e+01 -1.185683940977549256e+01 1.973302412707167663e+00 -1.185683940977549256e+01 -1.392341240192218663e+02
-8.933716365378175794e+01 -2.457120298695351313e+00 1.973504301857821552e+00 -2.457120298695351313e+00 -5.471593767438395872e+01 -1.186019897142309176e+01 1.973504301857821552e+00 -1.186019897142309176e+01 -1.392216415915791003e+02
-5.719855254715660919e+01 -1.487664640323438903e+01 -6.139173220269857012e+00 -1.487664640323438903e+01 -8.137320202689578252e+01 5.746237722659224723e+00 -6.139173220269857012e+00 5.746237722659224723e+00 -8.691653520778162090e+01
-5.718035332668805637e+01 -1.487557030192360230e+01 -6.140148722874536169e+00 -1.487557030192360230e+01 -8.136230688217976592e+01 5.744670821600458055e+00 -6.140148722874536169e+00 5.744670821600458055e+00 -8.690142711119165142e+01
-7.641080146529402839e+01 7.983895698013031783e+00 5.983850688852554001e+00 7.983895698013031783e+00 -5.253841740787023440e+01 -1.227782917194916301e+01 5.983850688852554001e+00 -1.227782917194916301e+01 -8.148570014580516840e+01
-7.640213643210007888e+01 7.981846555178885083e+00 5.986652392993045524e+00 7.981846555178885083e+00 -5.253794592367831484e+01 -1.228285229199392781e+01 5.986652392993045524e+00 -1.228285229199392781e+01 -8.148116966629427793e+01
-1.095586207872865998e+02 8.888937610388468968e+00 2.296053010710276787e+00 8.888937610388468968e+00 -9.504678667831889527e+01 1.353125032729073585e+00 2.296053010710276787e+00 1.353125032729073585e+00 -6.188174649664257743e+01
-1.095485099990881537e+02 8.886388014973327643e+00 2.297485789483447949e+00 8.886388014973327643e+00 -9.503444538517443618e+01 1.355399334406137912e+00 2.297485789483447949e+00 1.355399334406137912e+00 -6.187269621500330885e+01
-1.318913518213471718e+02 -1.439357806725725020e+01 -1.048919144799559433e+01 -1.439357806725725020e+01 -1.121102658793778915e+02 -8.195067681045502539e+00 -1.048919144799559433e+01 -8.195067681045502539e+00 -8.149310425327779228e+01
-1.318817613573298502e+02 -1.439496939638257089e+01 -1.048504658146179302e+01 -1.439496939638257089e+01 -1.121005556963428091e+02 -8.193330137463416207e+00 -1.048504658146179302e+01 -8.193330137463416207e+00 -8.148368851431341398e+01
