6.168057005999999731e+00 0.000000000000000000e+00 0.000000000000000000e+00 1.609421701000000038e+00 7.946605743000000110e+00 0.000000000000000000e+00 3.745284900000000333e-02 9.851317999999999533e-03 1.059413476599999981e+01
6.426579410999999631e+00 0.000000000000000000e+00 0.000000000000000000e+00 1.670350975000000071e+00 8.338959632999999982e+00 0.000000000000000000e+00 7.513146299999999556e-02 3.965438599999999980e-02 8.629494125000000793e+00
6.340802166999999656e+00 0.000000000000000000e+00 0.000000000000000000e+00 1.636040807000000097e+00 8.296468714999999605e+00 0.000000000000000000e+00 6.338350299999999382e-02 2.369530800000000173e-02 8.864957550999999825e+00
6.310712332999999674e+00 0.000000000000000000e+00 0.000000000000000000e+00 1.613431778999999899e+00 8.063597605000000001e+00 0.000000000000000000e+00 8.954384899999999481e-02 2.865478600000000153e-02 9.816070397000000725e+00
6.461979157000000029e+00 0.000000000000000000e+00 0.000000000000000000e+00 1.674902188999999986e+00 8.439027060000000802e+00 0.000000000000000000e+00 -9.316989500000000257e-02 -1.291482000000000047e-02 8.540898975999999365e+00
6.563077239000000063e+00 0.000000000000000000e+00 0.000000000000000000e+00 1.787853933999999922e+00 8.438661932000000476e+00 0.000000000000000000e+00 3.197771900000000167e-02 5.106748099999999790e-02 8.276232806999999525e+00
6.281134823999999561e+00 0.000000000000000000e+00 0.000000000000000000e+00 1.623266429000000066e+00 8.130995637999999914e+00 0.000000000000000000e+00 1.482111349999999939e-01 2.200935999999999865e-02 9.778840767000000156e+00
6.389106071999999692e+00 0.000000000000000000e+00 0.000000000000000000e+00 1.609392433000000011e+00 8.426029664999999724e+00 0.000000000000000000e+00 3.766189200000000237e-02 4.783564600000000250e-02 8.583656922999999495e+00
