-3.811095209200000227e+02
-3.791247574000000213e+02
-3.785210878600000228e+02
-3.834420457300000180e+02
-3.827200783299999785e+02
-3.813841824099999940e+02
-3.846462881799999991e+02
-3.827936799400000041e+02
