1.561069999999999958e+00 8.604500000000000481e-01 5.653500000000000192e-01 3.163640000000000008e+00 1.600170000000000092e+00 3.157020000000000159e+00 4.577440000000000175e+00 2.567180000000000017e+00 5.541089999999999627e+00 3.113179999999999836e+00 3.453430000000000000e+00 6.653599999999999515e-01 4.587900000000000311e+00 4.301599999999999646e+00 3.159990000000000077e+00 -5.625000000000000139e-02 5.059389999999999610e+00 5.665540000000000020e+00 4.587559999999999860e+00 6.216020000000000323e+00 5.530000000000000471e-01 1.557560000000000056e+00 7.712130000000000152e+00 5.695369999999999600e+00 4.541690000000000005e+00 7.896100000000000341e-01 5.690300000000000358e-01 -1.200999999999999984e-02 1.715260000000000007e+00 3.190090000000000092e+00 1.593369999999999953e+00 2.617570000000000174e+00 5.558440000000000047e+00 -5.872999999999999748e-02 3.429870000000000196e+00 7.681000000000000050e-01 1.663489999999999913e+00 4.296439999999999593e+00 3.117690000000000072e+00 3.010029999999999983e+00 5.266169999999999796e+00 5.677539999999999587e+00 1.551399999999999890e+00 6.005150000000000432e+00 6.716600000000000348e-01 3.082530000000000214e+00 6.962950000000000195e+00 3.127400000000000180e+00 -1.513139999999999930e+00 7.750200000000000422e+00 5.751549999999999940e+00 4.495919999999999916e+00 2.479940000000000033e+00 7.313690000000000246e+00 -5.068999999999999895e-02 8.623609999999999332e+00 2.487190000000000012e+00 1.543039999999999967e+00 9.518090000000000828e+00 5.014490000000000336e+00 1.522480000000000055e+00 2.551229999999999887e+00 8.070000000000000784e-03 3.280670000000000197e+00 3.373380000000000045e+00 2.499309999999999921e+00 4.576769999999999783e+00 4.423239999999999839e+00 4.962209999999999788e+00 1.622139999999999915e+00 7.671920000000000073e+00 7.457110000000000127e+00 -1.467160000000000020e+00 6.194239999999999746e+00 2.507299999999999862e+00 1.747999999999999901e-02 7.010130000000000194e+00 5.027519999999999989e+00 -7.345000000000000140e-02 1.025306999999999924e+01 7.409099999999999575e+00 3.044820000000000082e+00 8.618600000000000705e+00 2.379239999999999799e+00 1.157000000000000042e-02 1.685799999999999965e+00 4.975340000000000096e+00 4.555100000000000371e+00 2.532840000000000202e+00 3.729999999999999809e-03 -6.119999999999999572e-03 3.459839999999999804e+00 2.546689999999999898e+00 1.438199999999999923e+00 4.375420000000000087e+00 4.910840000000000316e+00 -7.852000000000000646e-02 5.248540000000000205e+00 1.673099999999999865e-01 1.480739999999999945e+00 6.119229999999999947e+00 2.610799999999999788e+00 3.066720000000000113e+00 6.980940000000000367e+00 4.923230000000000217e+00
1.527789999999999981e+00 1.092289999999999983e+00 6.334600000000000231e-01 2.928990000000000204e+00 1.868060000000000054e+00 3.117430000000000145e+00 4.460270000000000401e+00 2.670929999999999804e+00 5.625919999999999810e+00 3.156109999999999971e+00 3.770760000000000112e+00 5.987200000000000299e-01 4.370809999999999640e+00 4.472979999999999734e+00 3.067110000000000003e+00 -2.867700000000000249e-01 5.221210000000000129e+00 5.572449999999999903e+00 4.663789999999999658e+00 6.297019999999999840e+00 6.016899999999999471e-01 1.471349999999999936e+00 8.010749999999999815e+00 5.702420000000000044e+00 4.511429999999999829e+00 1.009530000000000038e+00 6.209599999999999564e-01 -2.802899999999999836e-01 1.885969999999999924e+00 3.066790000000000127e+00 1.356079999999999952e+00 2.685610000000000053e+00 5.528679999999999595e+00 1.310600000000000098e-01 3.628319999999999990e+00 6.368099999999999872e-01 1.429859999999999909e+00 4.451270000000000060e+00 2.936500000000000110e+00 2.804910000000000014e+00 5.145999999999999908e+00 5.553239999999999732e+00 1.324549999999999894e+00 6.465550000000000352e+00 5.611300000000000177e-01 2.902200000000000113e+00 7.023249999999999993e+00 3.042330000000000201e+00 -1.644320000000000004e+00 7.884719999999999729e+00 5.535540000000000127e+00 1.140400000000000025e-01 2.957999999999999866e-02 4.549000000000000266e-02 -1.590900000000000092e-01 8.902889999999999304e+00 2.558199999999999807e+00 1.409899999999999931e+00 9.824840000000000018e+00 4.908909999999999663e+00 1.612249999999999961e+00 2.727850000000000108e+00 4.109000000000000152e-02 2.985250000000000181e+00 3.583169999999999966e+00 2.449650000000000105e+00 4.360470000000000290e+00 4.374069999999999681e+00 4.910110000000000419e+00 3.036329999999999973e+00 5.511840000000000295e+00 1.322000000000000119e-01 -1.484070000000000000e+00 6.286229999999999762e+00 2.612659999999999982e+00 -5.292999999999999788e-02 7.056840000000000224e+00 4.665890000000000093e+00 -1.555600000000000038e-01 1.071940000000000026e+01 7.378999999999999559e+00 2.827059999999999906e+00 8.819950000000000401e+00 2.577300000000000146e+00 -1.756459999999999910e+00 9.690390000000000725e+00 5.068380000000000329e+00 2.852790000000000159e+00 5.473110000000000142e+00 7.252049999999999663e+00 -1.461699999999999944e-01 3.653280000000000083e+00 2.497510000000000119e+00 1.138439999999999896e+00 4.582499999999999574e+00 4.759960000000000413e+00 2.963000000000000009e-02 5.350209999999999688e+00 4.470999999999999974e-02 1.356710000000000083e+00 6.368260000000000254e+00 2.447909999999999808e+00 2.804060000000000219e+00 7.106160000000000032e+00 4.926840000000000330e+00
1.536059999999999981e+00 8.993100000000000538e-01 6.064899999999999736e-01 3.101879999999999971e+00 1.781360000000000054e+00 3.102269999999999861e+00 4.626979999999999649e+00 2.619450000000000056e+00 5.606760000000000410e+00 3.083520000000000039e+00 3.550170000000000048e+00 6.381299999999999750e-01 4.633180000000000298e+00 4.413249999999999673e+00 3.133189999999999920e+00 1.821000000000000049e-02 5.267649999999999721e+00 5.650839999999999641e+00 4.589409999999999989e+00 6.184379999999999988e+00 6.097399999999999487e-01 1.573949999999999960e+00 7.906049999999999578e+00 5.648909999999999876e+00 4.624279999999999724e+00 8.681200000000000028e-01 6.318399999999999572e-01 -1.635999999999999954e-02 1.773500000000000076e+00 3.100909999999999833e+00 1.562170000000000059e+00 2.575709999999999944e+00 5.625449999999999839e+00 -8.789999999999999203e-03 3.539210000000000189e+00 6.268500000000000183e-01 1.571660000000000057e+00 4.408660000000000245e+00 3.131209999999999827e+00 3.112169999999999881e+00 5.261040000000000383e+00 5.606200000000000294e+00 1.546920000000000073e+00 6.195249999999999702e+00 6.245899999999999785e-01 3.068430000000000213e+00 7.084509999999999863e+00 3.111499999999999932e+00 -1.581590000000000051e+00 7.899259999999999948e+00 5.648950000000000138e+00 -1.533309999999999951e+00 7.970489999999999853e+00 1.344000000000000056e-02 2.540999999999999856e-02 8.661250000000000782e+00 2.577049999999999841e+00 1.560990000000000100e+00 9.657349999999999213e+00 4.969689999999999941e+00 1.550489999999999924e+00 2.677249999999999908e+00 9.429999999999999147e-03 3.105350000000000055e+00 3.555989999999999984e+00 2.489730000000000221e+00 -1.510469999999999979e+00 4.413160000000000416e+00 4.992210000000000036e+00 3.067899999999999849e+00 5.313250000000000028e+00 1.115000000000000019e-02 -1.393080000000000096e+00 6.276939999999999742e+00 2.537240000000000162e+00 2.562000000000000041e-02 7.058690000000000353e+00 4.812789999999999679e+00 1.543269999999999920e+00 7.964199999999999946e+00 3.490000000000000047e-03 3.095289999999999875e+00 8.812459999999999738e+00 2.469259999999999788e+00 -1.508869999999999933e+00 9.670320000000000249e+00 4.966700000000000337e+00 4.624670000000000059e+00 2.660629999999999828e+00 6.239999999999999887e-03 2.898999999999999841e-02 3.545329999999999870e+00 2.473139999999999894e+00 1.569190000000000085e+00 4.372259999999999813e+00 4.981180000000000163e+00 6.749999999999999924e-03 5.307999999999999829e+00 3.253000000000000336e-02 1.376319999999999988e+00 6.273360000000000269e+00 2.579009999999999803e+00 3.080169999999999852e+00 7.025619999999999976e+00 4.946469999999999700e+00
1.656910000000000105e+00 9.391599999999999948e-01 6.330799999999999761e-01 3.105869999999999909e+00 1.697750000000000092e+00 3.208769999999999900e+00 4.747189999999999799e+00 2.507919999999999927e+00 5.738620000000000054e+00 3.039709999999999912e+00 3.518839999999999968e+00 7.547300000000000120e-01 4.707060000000000244e+00 4.351969999999999672e+00 3.099410000000000220e+00 -9.879999999999999893e-03 4.987779999999999880e+00 5.550869999999999749e+00 4.615730000000000111e+00 6.191080000000000361e+00 7.273399999999999865e-01 1.704749999999999988e+00 7.577029999999999710e+00 5.755580000000000140e+00 4.578809999999999825e+00 7.047200000000000131e-01 5.611899999999999666e-01 1.494099999999999873e-01 1.671140000000000070e+00 3.047180000000000000e+00 1.681959999999999900e+00 2.515899999999999803e+00 5.588980000000000281e+00 -4.436999999999999972e-02 3.402010000000000201e+00 5.869600000000000373e-01 1.486220000000000097e+00 4.274619999999999642e+00 3.107299999999999951e+00 3.050910000000000011e+00 5.021639999999999660e+00 5.660409999999999719e+00 1.562060000000000004e+00 5.968200000000000394e+00 5.137599999999999945e-01 2.962130000000000152e+00 6.955129999999999590e+00 3.099849999999999994e+00 -1.540580000000000060e+00 7.633869999999999933e+00 5.534629999999999939e+00 1.183199999999999946e-01 1.160999999999999949e-01 2.852000000000000021e-02 6.957000000000000683e-02 8.529759999999999565e+00 2.449689999999999923e+00 3.256380000000000052e+00 1.831979999999999942e+00 5.077300000000000146e+00 1.529099999999999904e-01 5.219409999999999883e+00 7.376299999999999635e+00 3.124470000000000081e+00 3.357479999999999798e+00 2.465530000000000221e+00 4.584329999999999572e+00 4.208420000000000272e+00 4.945090000000000430e+00 3.184229999999999894e+00 5.291129999999999889e+00 1.408800000000000052e-01 -1.194620000000000015e+00 6.242630000000000123e+00 2.676779999999999937e+00 1.458399999999999974e-01 6.914489999999999803e+00 4.651779999999999582e+00 1.510639999999999983e+00 7.802459999999999951e+00 1.917999999999999913e-02 3.044270000000000032e+00 8.617539999999999978e+00 2.430070000000000174e+00 -1.393159999999999954e+00 9.380990000000000606e+00 4.977789999999999715e+00 4.458459999999999646e+00 2.472669999999999924e+00 4.025000000000000105e-02 -1.400000000000000029e-02 3.528099999999999792e+00 2.364349999999999952e+00 1.573700000000000099e+00 4.267890000000000406e+00 4.982980000000000409e+00 -1.546620000000000106e+00 7.738990000000000258e+00 7.336459999999999759e+00 1.225519999999999943e+00 6.144680000000000142e+00 2.447709999999999830e+00 3.103209999999999802e+00 6.696749999999999758e+00 4.950109999999999566e+00
1.483510000000000106e+00 8.748200000000000420e-01 6.465800000000000436e-01 2.940980000000000150e+00 1.818179999999999907e+00 3.131299999999999972e+00 4.397890000000000299e+00 2.761519999999999975e+00 5.632850000000000357e+00 2.976059999999999928e+00 3.466000000000000192e+00 6.252400000000000180e-01 4.433900000000000396e+00 4.408689999999999998e+00 3.126100000000000101e+00 5.885119999999999685e+00 5.353589999999999627e+00 5.616369999999999862e+00 4.477330000000000254e+00 6.058279999999999887e+00 6.253499999999999615e-01 7.386359999999999815e+00 7.942389999999999617e+00 5.626400000000000290e+00 4.492860000000000298e+00 8.824699999999999767e-01 6.219299999999999828e-01 5.942859999999999587e+00 1.816270000000000051e+00 3.128439999999999888e+00 7.397100000000000009e+00 2.770789999999999864e+00 5.633130000000000415e+00 5.985369999999999635e+00 3.466699999999999893e+00 6.196199999999999486e-01 7.429560000000000386e+00 4.414850000000000385e+00 3.125410000000000021e+00 8.882920000000000371e+00 5.345449999999999591e+00 5.633350000000000080e+00 7.480139999999999567e+00 6.056540000000000035e+00 6.302600000000000424e-01 8.931309999999999860e+00 7.010799999999999699e+00 3.125919999999999810e+00 1.038359999999999950e+01 7.933690000000000353e+00 5.630099999999999660e+00 6.003459999999999575e+00 7.500000000000000156e-04 1.139999999999999954e-03 1.194069999999999965e+01 8.697929999999999495e+00 2.518219999999999903e+00 1.338390000000000057e+01 9.641870000000000829e+00 5.012559999999999683e+00 1.184859999999999935e+01 5.401930000000000121e+00 7.502200000000000202e+00 2.946619999999999795e+00 3.525840000000000085e+00 2.497489999999999988e+00 1.040440000000000076e+01 4.470439999999999969e+00 5.012559999999999683e+00 7.340150000000000396e+00 7.984849999999999781e+00 7.506660000000000110e+00 1.042650000000000077e+01 6.117479999999999585e+00 2.500539999999999985e+00 1.189719999999999978e+01 7.064700000000000202e+00 4.990359999999999907e+00 3.009549999999999947e+00 8.789999999999999203e-03 1.027999999999999921e-02 4.453199999999999825e+00 9.367999999999999661e-01 2.496919999999999806e+00 5.903789999999999871e+00 1.884940000000000060e+00 5.012760000000000105e+00 8.855259999999999465e+00 5.398950000000000138e+00 7.501100000000000101e+00 5.949230000000000018e+00 3.528080000000000105e+00 2.494510000000000005e+00 7.403920000000000279e+00 4.469990000000000130e+00 5.003999999999999559e+00 1.034609999999999985e+01 7.988459999999999894e+00 7.503529999999999589e+00 7.459909999999999819e+00 6.109919999999999796e+00 2.509129999999999860e+00 8.893990000000000506e+00 7.053960000000000008e+00 5.009529999999999816e+00
1.510999999999999899e+00 8.879099999999999770e-01 5.675999999999999934e-01 3.086069999999999869e+00 1.770799999999999930e+00 3.125379999999999825e+00 4.562940000000000218e+00 2.575530000000000097e+00 5.583309999999999995e+00 3.037040000000000184e+00 3.499769999999999825e+00 5.892399999999999860e-01 4.527890000000000192e+00 4.330049999999999955e+00 3.139269999999999783e+00 -2.492000000000000118e-02 5.191790000000000127e+00 5.656089999999999840e+00 4.525120000000000253e+00 6.157040000000000290e+00 5.786200000000000232e-01 1.528739999999999988e+00 7.902820000000000178e+00 5.619679999999999787e+00 4.581050000000000288e+00 8.771400000000000308e-01 6.135699999999999488e-01 -6.671000000000000540e-02 1.758699999999999930e+00 3.106580000000000119e+00 1.491400000000000059e+00 2.575979999999999936e+00 5.602430000000000021e+00 -2.623999999999999944e-02 3.493879999999999875e+00 6.202999999999999625e-01 1.520839999999999970e+00 4.288210000000000299e+00 3.129589999999999872e+00 3.003750000000000142e+00 5.205009999999999692e+00 5.591370000000000395e+00 1.499759999999999982e+00 6.168829999999999814e+00 5.325199999999999934e-01 3.032230000000000203e+00 6.999900000000000233e+00 3.107200000000000184e+00 -1.592389999999999972e+00 7.847920000000000229e+00 5.636269999999999669e+00 -1.527260000000000062e+00 2.586069999999999869e+00 7.464680000000000426e+00 -3.019000000000000156e-02 8.451810000000000045e+00 2.594250000000000167e+00 3.020900000000000141e+00 1.721230000000000038e+00 4.987140000000000128e+00 1.508089999999999931e+00 2.663120000000000154e+00 4.345000000000000251e-02 3.024109999999999854e+00 3.506609999999999783e+00 2.457879999999999843e+00 -1.522210000000000063e+00 4.335079999999999600e+00 5.015719999999999956e+00 3.018819999999999837e+00 5.269940000000000069e+00 7.479999999999999670e-03 -1.250960000000000072e+00 6.256540000000000212e+00 2.606209999999999916e+00 -3.305000000000000299e-02 6.976700000000000124e+00 4.654910000000000103e+00 3.039039999999999964e+00 1.614000000000000157e-02 1.200000000000000030e-04 2.996550000000000047e+00 8.747090000000000032e+00 2.476249999999999840e+00 -1.565399999999999903e+00 9.588480000000000558e+00 4.979379999999999917e+00 3.018219999999999903e+00 5.208999999999999631e+00 7.467229999999999812e+00 -1.941000000000000017e-02 3.517240000000000144e+00 2.493640000000000079e+00 1.471619999999999928e+00 4.339209999999999567e+00 4.987379999999999924e+00 -9.620000000000000079e-03 5.260749999999999815e+00 5.779999999999999721e-02 1.171680000000000055e+00 6.329449999999999577e+00 2.617669999999999941e+00 3.012430000000000163e+00 6.973860000000000170e+00 4.979309999999999903e+00
1.560230000000000006e+00 8.839900000000000535e-01 6.225500000000000478e-01 3.102310000000000123e+00 1.774410000000000043e+00 3.116120000000000001e+00 4.612049999999999983e+00 2.633290000000000131e+00 5.619799999999999685e+00 3.089640000000000164e+00 3.534889999999999866e+00 6.399399999999999533e-01 4.623639999999999972e+00 4.405619999999999870e+00 3.134720000000000173e+00 3.073999999999999996e-02 5.321259999999999657e+00 5.642719999999999736e+00 4.628829999999999778e+00 6.177130000000000010e+00 6.249900000000000455e-01 1.577730000000000077e+00 7.955350000000000144e+00 5.656270000000000131e+00 4.644940000000000069e+00 8.840799999999999770e-01 6.429300000000000015e-01 -2.323000000000000065e-02 1.800759999999999916e+00 3.122290000000000010e+00 1.540350000000000108e+00 2.660909999999999886e+00 5.628829999999999778e+00 1.149999999999999981e-02 3.529370000000000118e+00 6.259500000000000064e-01 1.544470000000000010e+00 4.375399999999999956e+00 3.148270000000000124e+00 3.089519999999999822e+00 5.323000000000000398e+00 5.638959999999999972e+00 1.544710000000000027e+00 6.192859999999999587e+00 5.770100000000000229e-01 3.102730000000000210e+00 7.074499999999999567e+00 3.119779999999999998e+00 -1.551960000000000006e+00 7.981989999999999696e+00 5.678379999999999761e+00 -3.039950000000000152e+00 1.061101999999999990e+01 7.512629999999999697e+00 1.818000000000000171e-02 8.591989999999999128e+00 2.598380000000000134e+00 1.546510000000000051e+00 9.722879999999999967e+00 4.989729999999999777e+00 1.552929999999999922e+00 2.674139999999999961e+00 1.728999999999999981e-02 3.086800000000000210e+00 3.538019999999999943e+00 2.491890000000000160e+00 -1.524969999999999937e+00 4.438159999999999883e+00 5.012859999999999872e+00 3.075000000000000178e+00 5.280719999999999636e+00 2.766000000000000056e-02 -1.289430000000000076e+00 6.354930000000000412e+00 2.611790000000000056e+00 4.005999999999999839e-02 7.078479999999999883e+00 4.724239999999999995e+00 3.108000000000000096e+00 5.629999999999999588e-03 4.000000000000000192e-04 3.095139999999999780e+00 8.834490000000000620e+00 2.505009999999999959e+00 1.481000000000000025e-02 1.761600000000000055e+00 5.002189999999999692e+00 4.625130000000000408e+00 2.660379999999999967e+00 1.815999999999999906e-02 1.302999999999999992e-02 3.580239999999999867e+00 2.507410000000000139e+00 1.560780000000000056e+00 4.439560000000000173e+00 5.017699999999999605e+00 2.100000000000000130e-02 5.317450000000000010e+00 6.035999999999999699e-02 1.289179999999999993e+00 6.309610000000000163e+00 2.588480000000000114e+00 3.106069999999999887e+00 7.065199999999999925e+00 5.000729999999999897e+00
1.506420000000000092e+00 8.828000000000000291e-01 6.267099999999999893e-01 3.066059999999999786e+00 1.787080000000000002e+00 3.079559999999999853e+00 4.579320000000000057e+00 2.632690000000000197e+00 5.578100000000000058e+00 3.062800000000000189e+00 3.486740000000000173e+00 6.049099999999999477e-01 4.554100000000000037e+00 4.385539999999999772e+00 3.099699999999999900e+00 3.459999999999999968e-03 5.266029999999999767e+00 5.604479999999999684e+00 4.536819999999999631e+00 6.123730000000000118e+00 6.290099999999999580e-01 1.557379999999999987e+00 7.888410000000000366e+00 5.604650000000000354e+00 4.565800000000000303e+00 8.589299999999999713e-01 6.170400000000000329e-01 -1.927999999999999853e-02 1.795379999999999976e+00 3.097710000000000186e+00 1.535660000000000025e+00 2.643650000000000055e+00 5.585210000000000008e+00 -8.240000000000000796e-03 3.492700000000000138e+00 6.208000000000000185e-01 1.541940000000000088e+00 4.424489999999999590e+00 3.102529999999999788e+00 3.049500000000000099e+00 5.261219999999999786e+00 5.599129999999999718e+00 1.511679999999999913e+00 6.135779999999999568e+00 6.534400000000000208e-01 3.053760000000000030e+00 6.986570000000000391e+00 3.090230000000000032e+00 -1.555870000000000086e+00 7.893900000000000361e+00 5.628689999999999749e+00 -1.515160000000000062e+00 7.876850000000000129e+00 1.429000000000000062e-02 -2.639999999999999986e-03 8.635410000000000252e+00 2.551719999999999988e+00 1.517449999999999966e+00 9.621639999999999304e+00 4.933830000000000382e+00 1.534909999999999997e+00 2.674100000000000144e+00 1.221999999999999996e-02 3.051779999999999937e+00 3.545189999999999841e+00 2.448770000000000113e+00 -1.521320000000000006e+00 4.402330000000000076e+00 4.954139999999999766e+00 3.035039999999999960e+00 5.234250000000000291e+00 1.709000000000000102e-02 -1.378659999999999997e+00 6.241080000000000183e+00 2.545110000000000205e+00 -3.129999999999999970e-03 7.033019999999999605e+00 4.828100000000000058e+00 1.517130000000000090e+00 7.880489999999999995e+00 1.918999999999999873e-02 3.063439999999999941e+00 8.739620000000000388e+00 2.457640000000000047e+00 -1.491940000000000044e+00 9.643539999999999779e+00 4.973010000000000375e+00 4.586350000000000371e+00 2.627289999999999903e+00 7.889999999999999444e-03 6.980000000000000093e-03 3.558520000000000127e+00 2.472659999999999858e+00 1.543830000000000036e+00 4.437070000000000292e+00 4.968569999999999709e+00 -1.589000000000000135e-02 5.249719999999999942e+00 5.444999999999999840e-02 1.394009999999999971e+00 6.226960000000000051e+00 2.558120000000000172e+00 3.062440000000000051e+00 6.987049999999999983e+00 4.940100000000000158e+00
1.552640000000000020e+00 9.341800000000000104e-01 5.908299999999999663e-01 3.124600000000000044e+00 1.878549999999999942e+00 3.031649999999999956e+00 4.390559999999999796e+00 2.714459999999999873e+00 5.595130000000000159e+00 3.085139999999999993e+00 3.601640000000000175e+00 7.144700000000000495e-01 4.630110000000000170e+00 4.484289999999999665e+00 3.256930000000000103e+00 -3.729999999999999982e-02 5.332670000000000243e+00 5.857800000000000118e+00 4.439820000000000100e+00 6.247969999999999580e+00 4.880999999999999783e-01 1.374179999999999957e+00 8.000220000000000553e+00 5.461870000000000225e+00 4.629999999999999893e+00 8.917100000000000026e-01 5.452599999999999669e-01 -1.549000000000000099e-01 1.890600000000000058e+00 3.246760000000000090e+00 1.485950000000000104e+00 2.753810000000000091e+00 5.685240000000000293e+00 -1.568900000000000017e-01 3.568509999999999849e+00 7.613499999999999712e-01 1.550110000000000099e+00 4.418219999999999814e+00 3.221389999999999976e+00 2.946849999999999969e+00 5.515290000000000248e+00 5.744489999999999874e+00 1.444770000000000110e+00 6.157589999999999897e+00 6.008599999999999497e-01 3.019730000000000025e+00 7.130910000000000082e+00 3.118370000000000086e+00 -1.665000000000000036e+00 7.974920000000000009e+00 5.738529999999999909e+00 4.403310000000000279e+00 2.882280000000000175e+00 7.398019999999999818e+00 -4.886000000000000065e-02 8.375270000000000437e+00 2.468570000000000153e+00 1.388169999999999904e+00 9.715960000000000818e+00 4.871240000000000236e+00 1.463750000000000107e+00 2.797299999999999898e+00 1.976499999999999924e-01 3.136489999999999778e+00 3.565650000000000208e+00 2.577799999999999869e+00 4.461350000000000371e+00 4.521670000000000300e+00 5.129789999999999850e+00 1.295290000000000052e+00 8.081009999999999138e+00 7.515080000000000204e+00 -1.154579999999999940e+00 6.450440000000000396e+00 2.496900000000000119e+00 -2.224500000000000088e-01 7.147569999999999979e+00 4.621209999999999596e+00 -4.927000000000000129e-02 1.067141999999999946e+01 7.506240000000000023e+00 3.167060000000000208e+00 8.819129999999999470e+00 2.413089999999999957e+00 -1.460939999999999905e+00 9.722049999999999415e+00 5.031859999999999999e+00 4.528710000000000235e+00 2.637710000000000221e+00 2.896999999999999922e-02 -1.898999999999999994e-02 3.808149999999999924e+00 2.569010000000000016e+00 1.375450000000000061e+00 4.596119999999999983e+00 5.077139999999999986e+00 -1.510299999999999976e-01 5.290040000000000298e+00 2.170100000000000084e-01 1.059989999999999988e+00 6.511560000000000237e+00 2.689979999999999816e+00 2.949079999999999924e+00 7.113430000000000142e+00 4.953199999999999825e+00
1.567409999999999970e+00 9.427900000000000169e-01 5.974699999999999456e-01 3.070510000000000073e+00 1.712499999999999911e+00 3.135349999999999859e+00 4.559050000000000047e+00 2.409279999999999866e+00 5.516810000000000436e+00 2.997209999999999930e+00 3.432090000000000085e+00 6.314699999999999758e-01 4.606770000000000032e+00 4.137990000000000279e+00 3.113539999999999974e+00 1.100600000000000050e-01 5.001089999999999591e+00 5.544520000000000337e+00 4.517260000000000275e+00 6.103390000000000093e+00 5.008599999999999719e-01 1.730529999999999902e+00 7.477669999999999817e+00 5.562409999999999854e+00 4.613679999999999559e+00 1.125119999999999898e+00 7.841299999999999937e-01 4.830000000000000092e-03 1.755679999999999907e+00 3.125649999999999817e+00 1.582140000000000102e+00 2.383459999999999912e+00 5.751529999999999809e+00 3.769000000000000128e-02 3.628190000000000026e+00 5.176199999999999690e-01 1.637590000000000101e+00 4.214929999999999843e+00 3.095349999999999824e+00 3.199590000000000156e+00 4.955560000000000187e+00 5.650870000000000282e+00 1.737700000000000022e+00 6.184499999999999886e+00 6.258399999999999519e-01 3.233839999999999826e+00 6.908330000000000304e+00 3.155349999999999877e+00 -1.496790000000000065e+00 7.702359999999999651e+00 5.699119999999999742e+00 -1.357739999999999947e+00 2.414590000000000014e+00 7.357420000000000293e+00 7.045999999999999486e-02 8.291140000000000398e+00 2.619979999999999976e+00 1.643850000000000033e+00 9.246990000000000265e+00 4.976619999999999600e+00 1.515989999999999949e+00 2.591110000000000024e+00 9.288000000000000422e-02 2.974190000000000111e+00 3.328739999999999810e+00 2.452139999999999986e+00 -1.340940000000000021e+00 4.145310000000000272e+00 4.882080000000000197e+00 1.810219999999999940e+00 7.558519999999999683e+00 7.353279999999999816e+00 -1.094039999999999901e+00 6.224849999999999994e+00 2.528340000000000032e+00 1.808999999999999844e-02 6.779010000000000424e+00 4.474359999999999893e+00 1.567630000000000079e+00 7.849680000000000213e+00 1.142600000000000005e-01 4.671420000000000350e+00 8.436700000000000310e-01 2.506829999999999892e+00 1.006500000000000034e-01 1.691980000000000040e+00 5.026860000000000106e+00 3.301099999999999923e+00 5.142949999999999910e+00 7.402070000000000149e+00 9.267999999999999849e-02 3.372339999999999893e+00 2.454810000000000159e+00 1.577460000000000084e+00 4.197709999999999830e+00 5.021399999999999864e+00 4.231000000000000039e-02 5.298790000000000333e+00 1.068899999999999989e-01 1.188649999999999984e+00 6.090440000000000076e+00 2.769600000000000062e+00 3.239980000000000082e+00 6.740499999999999936e+00 4.943139999999999645e+00
1.510960000000000081e+00 9.652199999999999669e-01 7.110100000000000309e-01 3.176930000000000032e+00 1.721149999999999958e+00 3.097599999999999909e+00 4.631420000000000314e+00 2.755199999999999871e+00 5.575510000000000410e+00 3.074949999999999850e+00 3.606259999999999799e+00 6.558100000000000041e-01 4.609300000000000175e+00 4.410000000000000142e+00 3.160120000000000040e+00 9.550000000000000155e-02 5.309199999999999697e+00 5.628870000000000040e+00 4.548329999999999984e+00 6.285429999999999851e+00 5.376199999999999868e-01 1.556510000000000060e+00 7.873890000000000278e+00 5.519790000000000418e+00 4.571959999999999802e+00 8.206900000000000306e-01 6.233400000000000052e-01 5.479999999999999628e-03 1.848559999999999981e+00 3.032550000000000079e+00 1.537509999999999932e+00 2.647009999999999863e+00 5.484639999999999738e+00 1.080000000000000014e-03 3.626980000000000093e+00 6.650599999999999845e-01 1.610789999999999944e+00 4.483970000000000233e+00 3.053690000000000015e+00 3.098059999999999814e+00 5.325899999999999856e+00 5.570879999999999832e+00 1.471640000000000059e+00 6.253040000000000376e+00 6.597100000000000186e-01 3.241929999999999978e+00 7.149079999999999657e+00 3.065119999999999845e+00 -1.584999999999999964e+00 7.986819999999999808e+00 5.661810000000000009e+00 -3.040249999999999897e+00 1.063945999999999970e+01 7.449840000000000018e+00 -5.279999999999999971e-02 8.774390000000000356e+00 2.472879999999999967e+00 3.111619999999999830e+00 1.793889999999999985e+00 4.967660000000000409e+00 1.688739999999999908e+00 2.655850000000000044e+00 5.340999999999999914e-02 3.107439999999999980e+00 3.489939999999999820e+00 2.502079999999999860e+00 -1.537530000000000063e+00 4.538499999999999979e+00 5.040259999999999962e+00 1.596870000000000012e+00 7.881990000000000052e+00 7.416559999999999597e+00 -1.423890000000000100e+00 6.308830000000000382e+00 2.560880000000000045e+00 7.545999999999999930e-02 7.070529999999999760e+00 4.850050000000000416e+00 1.479870000000000019e+00 8.018890000000000740e+00 6.422999999999999543e-02 3.069259999999999877e+00 8.844569999999999155e+00 2.485459999999999781e+00 -1.485849999999999893e+00 9.721790000000000376e+00 4.908280000000000420e+00 4.634319999999999773e+00 2.617910000000000181e+00 1.750000000000000167e-02 1.468000000000000034e-02 3.665119999999999933e+00 2.488459999999999894e+00 1.678739999999999899e+00 4.399680000000000035e+00 4.857230000000000381e+00 -7.532999999999999419e-02 5.466079999999999828e+00 5.052000000000000240e-02 1.603760000000000074e+00 6.293779999999999930e+00 2.504799999999999915e+00 3.148820000000000174e+00 7.118529999999999802e+00 5.033909999999999663e+00