-1.372417999999999916e+00 -1.594543000000000044e+00 1.068305000000000060e+00 -1.396104999999999929e+00 3.920200000000000073e-02 -7.876570000000000515e-01 7.453539999999999610e-01 4.900360000000000271e-01 -4.911059999999999870e-01 -8.025259999999999616e-01 -4.643630000000000257e-01 -2.898209999999999953e-01 2.162058000000000035e+00 2.605855000000000032e+00 -2.188170000000000115e-01 7.448289999999999633e-01 2.612099000000000171e+00 -5.168190000000000284e-01 -9.079760000000000053e-01 -2.135008000000000017e+00 1.851015999999999995e+00 -9.095799999999999719e-02 1.729896000000000100e+00 -1.874206000000000039e+00 -2.534609999999999919e-01 1.297099999999999989e-02 -3.192880000000000162e-01 3.181959999999999789e-01 -1.109275000000000011e+00 -1.895453000000000054e+00 -9.001440000000000552e-01 -1.267404999999999893e+00 2.003020000000000078e-01 3.528029999999999777e-01 -9.456000000000000863e-03 -2.159864999999999924e+00 -1.354387999999999925e+00 9.661599999999999355e-02 -5.573200000000000376e-01 4.246210000000000262e-01 -9.298629999999999951e-01 -1.524083999999999994e+00 -4.498849999999999794e-01 9.608010000000000161e-01 1.853480000000000127e-01 3.330600000000000227e-02 -4.343949999999999756e-01 -4.422309999999999852e-01 -3.394369999999999887e-01 9.446290000000000520e-01 -1.335761999999999894e+00 1.729513000000000078e+00 1.849722000000000088e+00 1.599601999999999968e+00 2.551840000000000219e-01 1.022469999999999990e+00 -3.206390000000000073e-01 -9.080329999999999790e-01 -2.573130000000000139e-01 -6.861429999999999474e-01 -1.373790000000000011e-01 1.924884999999999957e+00 1.005690999999999891e+00 -3.876271000000000022e+00 -2.712289999999999979e-01 -3.777639999999999887e-01 -2.049192000000000125e+00 -1.406519999999999992e+00 1.049158000000000035e+00 -6.761589999999999545e-01 3.748110000000000053e-01 2.429028000000000187e+00 -6.088209999999999456e-01 -1.050867999999999913e+00 -7.996929999999999872e-01 -2.820079999999999809e-01 -1.687988000000000044e+00 6.247209999999999708e-01 9.191460000000000186e-01 3.834250000000000158e-01 4.250639999999999974e-01 7.263720000000000176e-01 7.561719999999999553e-01 1.086705000000000032e+00 4.924399999999999888e-01 7.851500000000000146e-02 1.393089999999999939e+00 5.063309999999999755e-01 9.942149999999999599e-01 -1.140509999999999996e-01 1.709912000000000099e+00 5.292999999999999962e-03 6.590449999999999919e-01 2.306802999999999937e+00 -5.882870000000000044e-01 1.318983000000000017e+00 1.559503000000000084e+00 -1.517744999999999900e+00 -1.160759000000000096e+00 9.818099999999999605e-01 -1.267816999999999972e+00 -1.145154000000000005e+00 4.369799999999999796e-01 -8.895380000000000509e-01 2.120569999999999844e+00
6.150660000000000016e-01 -3.782742999999999967e+00 1.453216999999999981e+00 -3.142090000000000161e-01 -1.708452000000000082e+00 -4.407809999999999784e-01 -1.125586999999999893e+00 -1.636090000000000044e-01 -4.464009999999999923e-01 -1.444890000000000008e+00 -1.854416000000000064e+00 3.029279999999999751e-01 1.642209999999999948e+00 1.528602999999999934e+00 1.034140999999999977e+00 1.409429000000000043e+00 3.188612000000000002e+00 -1.642990000000000006e-01 -2.032764999999999933e+00 6.947320000000000162e-01 2.409489000000000214e+00 -2.008694999999999897e+00 1.027568999999999955e+00 -2.496367999999999920e+00 2.570049999999999835e-01 -1.988247000000000098e+00 6.603229999999999933e-01 2.397777000000000047e+00 -1.350133999999999945e+00 1.861914999999999987e+00 9.374699999999999700e-02 -3.886299999999999755e-01 -8.337210000000000454e-01 -1.855039000000000105e+00 -1.749590000000000034e-01 -3.525610000000000133e-01 -7.040309999999999624e-01 1.727746999999999922e+00 8.065080000000000027e-01 -8.434249999999999803e-01 2.356762999999999941e+00 -3.084820999999999813e+00 2.262735999999999859e+00 -5.488965000000000316e+00 3.231348999999999805e+00 5.675510000000000277e-01 1.692758999999999903e+00 1.095126000000000044e+00 5.881769999999999499e-01 5.087190000000000323e-01 -7.577779999999999516e-01 -1.269160000000000066e+00 2.021368999999999971e+00 4.730579999999999785e-01 -1.243753000000000108e+00 2.587816000000000116e+00 -1.326173999999999964e+00 -1.716218999999999939e+00 2.296999999999999875e-01 2.363538000000000139e+00 -4.391019999999999923e-01 1.957133999999999929e+00 -7.802519999999999456e-01 -1.354594000000000076e+00 -2.993379999999999930e-01 -1.188217999999999996e+00 -1.809333999999999998e+00 -3.606269999999999754e-01 6.443219999999999503e-01 -3.800629999999999842e-01 -2.835340000000000082e-01 -8.265850000000000142e-01 -1.001297000000000104e+00 -6.204870000000000108e-01 -2.029469999999999885e+00 -7.017609999999999681e-01 6.047820000000000418e-01 3.648076000000000096e+00 3.037509999999999932e-01 7.319582999999999728e+00 -2.100945999999999980e+00 3.596090000000000120e-01 1.723427999999999960e+00 -2.832583000000000073e+00 2.075740999999999836e+00 8.934100000000000374e-01 -1.944242999999999943e+00 1.633113999999999955e+00 -2.536070000000000269e-01 3.524030000000000218e+00 7.120699999999999807e-01 -1.968062999999999896e+00 -2.005759999999999987e+00 3.817175999999999902e+00 -2.960001000000000104e+00 1.595323999999999964e+00 1.013369999999999965e-01 -1.956190000000000095e+00 -1.656983000000000095e+00 -9.561600000000000654e-02 -2.463696999999999804e+00 -4.967150000000000176e-01 1.503046000000000104e+00 -1.997027000000000108e+00 6.613160000000000149e-01
2.509299999999999864e-01 -1.014806000000000097e+00 1.050100999999999951e+00 -3.779509999999999814e-01 -1.187200000000000033e+00 4.284700000000000314e-02 3.001920000000000144e-01 -2.954200000000000159e-01 -4.227299999999999808e-02 8.051400000000000223e-02 -1.066180000000000044e-01 -2.681649999999999867e-01 9.143489999999999673e-01 8.280370000000000230e-01 -3.388789999999999858e-01 3.853170000000000206e-01 4.844749999999999890e-01 -1.630006999999999984e+00 1.162376000000000076e+00 4.691060000000000230e-01 7.749819999999999487e-01 -6.793799999999999839e-01 -8.070199999999999596e-02 -1.303474000000000022e+00 -9.533899999999999320e-02 2.172060000000000102e-01 -4.773109999999999853e-01 7.545549999999999757e-01 -1.212758000000000003e+00 4.600800000000000028e-02 -1.838199999999999903e-02 1.474930000000000130e-01 -4.755440000000000222e-01 2.690259999999999874e-01 1.932499999999999843e-02 -9.267899999999999749e-02 -8.711349999999999927e-01 8.083550000000000457e-01 -2.752609999999999779e-01 -3.725240000000000218e-01 8.768499999999999905e-02 7.309999999999999831e-02 -8.845549999999999802e-01 3.324960000000000138e-01 9.582650000000000334e-01 1.350190000000000001e-01 -3.776430000000000065e-01 -1.799830000000000041e-01 1.137740999999999891e+00 3.473699999999999705e-02 -1.429616999999999916e+00 -2.264790000000000136e-01 7.924699999999999800e-02 -6.607709999999999972e-01 -2.448069999999999968e-01 3.115955000000000030e+00 -1.171926999999999941e+00 2.968669999999999920e-01 8.519320000000000226e-01 4.980780000000000207e-01 -1.072329999999999950e-01 9.698299999999999976e-02 4.755229999999999735e-01 -1.346479999999999899e-01 -5.373800000000000104e-02 1.162900000000000045e-02 -1.906079999999999997e-01 -7.512109999999999621e-01 3.604289999999999994e-01 -6.277999999999999726e-03 -2.784190000000000276e-01 4.139999999999999791e-01 -2.870931999999999817e+00 -1.532370000000000010e+00 -9.411030000000000229e-01 -2.342420000000000058e-01 -9.150999999999999412e-02 3.161696000000000062e+00 6.043599999999999667e-02 2.604940000000000033e-01 -1.163929999999999965e-01 -1.070569999999999994e-01 9.374169999999999447e-01 3.469650000000000234e-01 -6.559909999999999908e-01 5.203980000000000272e-01 6.329869999999999663e-01 -1.350139999999999951e-01 -1.836839999999999862e-01 -1.342679999999999985e-01 -1.774439999999999906e-01 -3.231390000000000096e-01 5.104560000000000208e-01 -4.020000000000000136e-03 -2.121230000000000060e-01 7.456380000000000230e-01 -3.193710000000000160e-01 1.479999999999999925e-04 -4.367900000000000116e-01 2.849330999999999836e+00 -1.490871999999999975e+00 -1.185658000000000101e+00 1.167369999999999935e-01 -9.927700000000000413e-02 1.057398999999999978e+00
-9.348849999999999660e-01 1.130199999999999955e-01 -6.526600000000000457e-02 3.566329999999999778e-01 -9.602220000000000200e-01 -4.723570000000000269e-01 1.019638000000000044e+00 3.899099999999999788e-02 -2.855258000000000074e+00 1.017309000000000019e+00 -6.651409999999999823e-01 -2.864117999999999942e+00 -2.096191999999999833e+00 2.537579999999999836e-01 4.543730000000000269e-01 1.046305000000000041e+00 2.280609999999999804e+00 -9.855500000000000371e-02 2.040939999999999976e+00 7.651820000000000288e-01 5.633780000000000454e-01 -1.297557000000000071e+00 1.575712000000000002e+00 -2.239205999999999808e+00 4.530700000000000005e-02 1.583830999999999989e+00 1.257702000000000098e+00 -1.961929000000000034e+00 -8.887100000000000000e-01 5.502580000000000249e-01 -1.697778000000000009e+00 -7.530470000000000219e-01 4.891519999999999757e-01 -6.932399999999999674e-01 8.846699999999999564e-01 -1.470701000000000036e+00 8.703469999999999818e-01 1.299965999999999955e+00 -1.555199999999999916e-01 1.059587999999999974e+00 -2.349910000000000054e-01 -8.388050000000000228e-01 -2.630541000000000018e+00 1.780083000000000082e+00 1.356149999999999967e+00 4.688339999999999730e-01 -1.610454999999999970e+00 4.045949999999999824e-01 1.796623999999999999e+00 3.611610000000000098e-01 -1.313134999999999941e+00 -5.915350000000000330e-01 -7.672269999999999923e-01 1.812875999999999932e+00 8.718540000000000179e-01 3.444424000000000152e+00 2.394479999999999942e-01 -1.375591999999999926e+00 -3.792597000000000218e+00 -5.768780000000000019e-01 -1.319296000000000024e+00 -6.205310000000000548e-01 5.243010000000000170e-01 -1.048429000000000055e+00 2.260564000000000018e+00 2.579438000000000120e+00 8.629839999999999733e-01 3.610309999999999908e-01 4.777020000000000155e-01 -1.327887999999999957e+00 -1.241957999999999895e+00 -5.053410000000000402e-01 -5.428856999999999822e+00 -1.982123999999999997e+00 -1.803698999999999941e+00 8.911900000000000377e-02 -5.070219999999999727e-01 5.641003999999999685e+00 1.116627000000000036e+00 -1.171397999999999939e+00 -1.248601999999999990e+00 1.176860000000000017e+00 8.653960000000000541e-01 8.455789999999999695e-01 3.233480000000000243e-01 1.624449999999999950e+00 -9.494569999999999954e-01 1.358201999999999909e+00 1.461200999999999972e+00 2.663289999999999824e-01 1.670263000000000053e+00 -2.102174999999999905e+00 1.218488000000000016e+00 -1.344100000000000072e+00 -1.180055999999999994e+00 -1.215303999999999940e+00 1.703113000000000099e+00 -1.898541000000000034e+00 1.471465000000000023e+00 5.420741999999999727e+00 -2.125182999999999822e+00 -1.175453000000000081e+00 -5.668180000000000440e-01 1.547328000000000037e+00 -3.045820000000000194e-01
2.195509999999999962e-01 -3.200230000000000019e-01 2.126010000000000122e-01 9.638599999999999945e-02 -3.664270000000000027e-01 4.119399999999999729e-01 -4.487499999999999822e-02 -3.220100000000000184e-01 3.116399999999999726e-01 2.057750000000000135e-01 -3.202340000000000186e-01 2.929789999999999894e-01 2.703579999999999872e-01 -1.397029999999999939e-01 4.648419999999999774e-01 2.110619999999999996e-01 -2.008570000000000078e-01 2.068359999999999921e-01 1.492249999999999965e-01 -2.986380000000000146e-01 3.580010000000000137e-01 -5.411000000000000011e-03 -5.258230000000000404e-01 3.124319999999999875e-01 1.950959999999999916e-01 -2.727209999999999912e-01 4.330829999999999957e-01 1.385309999999999875e-01 -2.875070000000000126e-01 4.342130000000000156e-01 1.722100000000000020e-02 -4.677850000000000064e-01 4.129309999999999925e-01 1.379680000000000073e-01 -2.578219999999999956e-01 3.720010000000000261e-01 1.858460000000000112e-01 -4.137040000000000162e-01 4.624900000000000122e-01 3.041659999999999919e-01 -1.966600000000000015e-01 2.146859999999999880e-01 1.153659999999999963e-01 -2.020909999999999929e-01 2.541010000000000213e-01 1.013819999999999999e-01 -4.251050000000000106e-01 6.406739999999999657e-01 1.075720000000000010e-01 -1.477479999999999905e-01 2.595029999999999837e-01 -1.439040000000000041e-01 2.825289999999999746e-01 -2.461000000000000132e-01 -1.952369999999999939e-01 -4.934569999999999790e-01 -9.269600000000000062e-02 -1.384299999999999940e-02 5.890640000000000320e-01 -3.922200000000000131e-01 -3.347200000000000175e-02 2.682399999999999785e-01 -1.818079999999999974e-01 -2.415750000000000119e-01 2.758120000000000016e-01 -4.061219999999999830e-01 -3.273499999999999743e-01 2.619429999999999814e-01 -4.732290000000000108e-01 -1.228489999999999999e-01 3.107659999999999867e-01 -2.603960000000000163e-01 3.213770000000000238e-01 4.946789999999999798e-01 -3.288530000000000064e-01 -1.570239999999999969e-01 4.021910000000000207e-01 -2.294589999999999963e-01 -2.740170000000000106e-01 1.173740000000000061e-01 -3.867099999999999982e-01 -8.567700000000000315e-02 5.019949999999999690e-01 -4.933500000000000107e-01 5.391599999999999865e-02 1.655330000000000135e-01 -4.044490000000000030e-01 -2.869530000000000136e-01 3.691969999999999974e-01 -2.288000000000000034e-01 -1.937830000000000108e-01 2.046489999999999976e-01 -4.059829999999999828e-01 -1.651499999999999913e-01 3.101630000000000220e-01 -3.095999999999999863e-01 -9.775899999999999868e-02 3.104149999999999965e-01 -1.823420000000000041e-01 -3.685240000000000182e-01 6.080750000000000322e-01 -6.578819999999999668e-01 -7.339500000000000191e-02 1.856879999999999920e-01 -3.749540000000000095e-01
3.444940000000000224e-01 -8.354409999999999892e-01 1.819558999999999926e+00 -1.327158999999999978e+00 -1.553026999999999935e+00 -2.390190000000000092e-01 -1.171790000000000054e-01 1.409620000000000040e-01 5.835529999999999884e-01 4.792500000000000232e-02 4.967389999999999861e-01 6.112069999999999448e-01 1.358228999999999909e+00 1.514350000000000085e+00 -7.147399999999999587e-02 3.861699999999999855e-02 1.145196000000000103e+00 -1.554208000000000034e+00 1.394390999999999936e+00 2.271060000000000023e-01 1.546745999999999954e+00 -1.121153000000000066e+00 -1.072589999999999932e+00 -1.218267999999999907e+00 -3.710319999999999729e-01 4.084600000000000036e-02 2.020000000000000094e-03 1.557253999999999916e+00 -1.746077000000000101e+00 2.239559999999999884e-01 2.016330000000000067e-01 1.125300000000000050e-01 4.471900000000000180e-02 7.931699999999999862e-02 5.107059999999999933e-01 4.889279999999999737e-01 -1.419953000000000021e+00 2.253563000000000205e+00 -1.536500000000000019e-02 2.273850000000000038e-01 1.597770000000000024e-01 2.324559999999999960e-01 -8.694830000000000059e-01 1.700290000000000135e-01 2.303370000000000140e+00 -2.277339999999999920e-01 -1.790800000000000031e-02 1.416260000000000019e-01 1.248294000000000015e+00 -4.784519999999999884e-01 -1.346749999999999892e+00 -4.635110000000000063e-01 -2.228320000000000023e-01 -6.262130000000000196e-01 -3.077039999999999775e-01 6.599455999999999989e+00 -2.057995000000000019e+00 3.673580000000000179e-01 5.194809999999999706e-01 -2.973100000000000048e-02 -7.078800000000000370e-02 -7.971300000000000607e-02 -3.578410000000000202e-01 7.345300000000000440e-02 9.260500000000000675e-02 -1.812110000000000110e-01 -8.057199999999999918e-01 -1.596289999999999931e-01 -2.530439999999999912e-01 -1.742849999999999955e-01 -2.437340000000000062e-01 1.418830000000000091e-01 -6.357639999999999958e+00 -3.071178000000000186e+00 -2.306646999999999892e+00 -1.080480000000000051e-01 1.986759999999999915e-01 6.918190000000000062e+00 3.804509999999999836e-01 2.364590000000000025e-01 -6.783540000000000125e-01 1.272040000000000115e-01 2.086850000000000094e-01 -8.744200000000000583e-02 -3.874199999999999866e-01 3.447310000000000096e-01 2.699400000000000063e-02 -4.449299999999999783e-02 -3.518700000000000161e-01 -3.801749999999999852e-01 -1.380999999999999936e-02 -8.511339999999999462e-01 -1.572810000000000041e-01 6.227310000000000345e-01 -3.789089999999999958e-01 1.358050000000000090e-01 -3.091709999999999736e-01 -1.442479999999999873e-01 -1.288351999999999942e+00 6.490594999999999892e+00 -3.550475000000000048e+00 -2.431052000000000213e+00 -6.304700000000000581e-02 -2.146810000000000107e-01 5.941099999999999853e-02
-7.459799999999999764e-02 -9.202780000000000404e-01 7.794609999999999594e-01 -8.044310000000000072e-01 -1.154986999999999986e+00 1.766340000000000132e-01 2.097360000000000058e-01 4.679200000000000026e-01 2.905150000000000232e-01 -1.426400000000000064e-02 -1.500920000000000032e-01 -1.576740000000000086e-01 8.082470000000000487e-01 1.207589000000000024e+00 1.540789999999999937e-01 -2.791089999999999960e-01 3.616659999999999875e-01 -1.035935000000000050e+00 7.009999999999999565e-01 7.204840000000000133e-01 8.804779999999999829e-01 -7.098109999999999697e-01 -1.475879999999999970e-01 -1.048759999999999915e+00 -1.232840000000000047e-01 -5.718000000000000166e-02 -4.309879999999999822e-01 7.547850000000000392e-01 -1.538380000000000081e+00 1.183450000000000057e-01 2.489989999999999981e-01 -7.530499999999999694e-02 1.797860000000000014e-01 -5.250300000000000106e-02 2.401189999999999991e-01 1.946710000000000107e-01 -4.443579999999999752e-01 1.722328999999999999e+00 -8.827400000000000524e-02 2.236769999999999869e-01 -3.709850000000000092e-01 2.791529999999999845e-01 -3.667400000000000104e-01 6.288019999999999721e-01 1.700418999999999903e+00 -2.165660000000000085e-01 4.077399999999999775e-02 2.695969999999999756e-01 8.335709999999999509e-01 -5.802880000000000260e-01 -1.389756999999999909e+00 -2.482159999999999922e-01 -9.770099999999999618e-02 -2.548880000000000035e-01 -9.189799999999999358e-02 4.931606000000000378e+00 -1.528102000000000071e+00 2.604799999999999893e-01 2.543770000000000198e-01 4.626750000000000029e-01 -1.157569999999999988e-01 1.172400000000000005e-02 -2.222700000000000023e-02 -1.143809999999999966e-01 3.387890000000000068e-01 1.395309999999999884e-01 -2.088959999999999984e-01 -4.717819999999999792e-01 2.336449999999999916e-01 2.044390000000000096e-01 3.635950000000000015e-01 -8.923200000000000576e-02 -4.797928999999999888e+00 -2.763469000000000175e+00 -1.885653000000000024e+00 -2.249049999999999938e-01 3.635120000000000018e-01 5.278845999999999705e+00 -1.609500000000000167e-02 2.146699999999999997e-02 -4.098109999999999808e-01 3.183480000000000198e-01 4.180599999999999872e-01 6.121599999999999958e-02 -4.359219999999999762e-01 1.835519999999999929e-01 2.154830000000000079e-01 2.356090000000000129e-01 -1.099379999999999941e-01 -3.125870000000000037e-01 -1.783440000000000025e-01 -1.030275999999999970e+00 -1.884319999999999884e-01 1.126079999999999998e-01 -4.242790000000000172e-01 1.104269999999999974e-01 -3.548200000000000243e-01 -4.807580000000000187e-01 -1.300923000000000052e+00 4.872651000000000288e+00 -2.378004999999999924e+00 -1.699731000000000103e+00 8.867899999999999394e-02 4.749229999999999841e-01 3.180160000000000209e-01
2.208090000000000053e-01 -3.916510000000000269e-01 6.810559999999999947e-01 -5.897609999999999797e-01 -9.405639999999999556e-01 -5.817399999999999655e-02 -1.544850000000000112e-01 1.034500000000000003e-01 2.320510000000000073e-01 -6.890200000000000491e-02 3.244150000000000089e-01 1.774000000000000021e-01 1.001924000000000037e+00 9.893030000000000435e-01 -4.142499999999999655e-02 -6.569200000000000039e-02 6.811420000000000252e-01 -9.357609999999999539e-01 9.384890000000000176e-01 2.214689999999999992e-01 6.652940000000000520e-01 -8.226419999999999844e-01 -3.252979999999999761e-01 -6.973059999999999814e-01 4.749599999999999655e-02 2.427590000000000026e-01 -1.358479999999999965e-01 5.621859999999999635e-01 -1.090778999999999943e+00 4.943100000000000271e-02 -5.004600000000000021e-02 1.792630000000000057e-01 1.726479999999999959e-01 2.476470000000000060e-01 2.722060000000000035e-01 1.910660000000000136e-01 -7.202560000000000073e-01 2.659679999999999822e-01 3.309999999999999748e-02 3.861029999999999740e-01 1.532850000000000046e-01 7.981499999999999706e-02 -4.248149999999999982e-01 -3.491299999999999959e-02 3.137550000000000061e-01 4.519100000000000200e-02 5.812230000000000452e-01 2.495870000000000033e-01 8.780639999999999556e-01 -3.000530000000000141e-01 -8.615420000000000300e-01 -3.197490000000000054e-01 1.714200000000000099e-02 -8.417179999999999662e-01 6.670900000000000440e-02 2.402184999999999793e+00 -7.804389999999999938e-01 6.346209999999999907e-01 6.908919999999999506e-01 5.926829999999999599e-01 -3.052480000000000193e-01 -8.210009999999999808e-01 -1.051200000000000051e-01 -2.030160000000000020e-01 -1.697859999999999925e-01 3.264239999999999919e-01 -1.305920000000000136e-01 -6.272400000000000198e-01 4.446709999999999829e-01 -1.036720000000000003e-01 4.254959999999999853e-01 -7.395699999999999497e-02 -2.432050999999999963e+00 -1.546265000000000001e+00 -9.909679999999999600e-01 1.190500000000000065e-02 1.978520000000000001e-01 2.466092000000000173e+00 2.096010000000000095e-01 1.394299999999999984e-01 -6.407620000000000537e-01 -1.010299999999999913e-02 5.688560000000000283e-01 4.290349999999999997e-01 -6.083779999999999744e-01 2.807919999999999860e-01 4.269300000000000178e-02 -8.098700000000000343e-02 -5.248110000000000275e-01 -3.070530000000000204e-01 -1.563600000000000059e-02 -6.400879999999999903e-01 3.654819999999999736e-01 -2.330530000000000102e-01 -1.039228000000000041e+00 1.452130000000000087e-01 -3.694999999999999674e-02 2.017450000000000077e-01 -8.030270000000000463e-01 2.189923999999999982e+00 -1.006923999999999930e+00 -9.741570000000000507e-01 -6.463299999999999601e-02 5.197279999999999678e-01 5.897620000000000084e-01
-4.099940000000000251e-01 -1.587869999999999893e+00 4.317949999999999844e-01 -9.137229999999999519e-01 -3.511943000000000037e+00 4.698660000000000059e-01 1.234655000000000058e+00 2.676589999999999803e-01 -4.684039999999999870e-01 -8.739329999999999599e-01 -3.836010000000000253e-01 -2.313489999999999991e-01 -8.349609999999999532e-01 2.493771999999999878e+00 2.779499999999999749e-01 -2.323310000000000208e+00 1.334792999999999896e+00 -1.352004999999999901e+00 8.920749999999999513e-01 -3.543400000000000022e-02 1.787806000000000006e+00 -9.787139999999999729e-01 -7.557450000000000001e-01 4.843930000000000180e-01 -8.637310000000000265e-01 5.358199999999999769e-02 9.635190000000000143e-01 2.320873999999999882e+00 -7.553250000000000242e-01 -1.397075999999999985e+00 2.167570000000000052e-01 5.041199999999999848e-02 -1.035196000000000005e+00 1.343544000000000072e+00 -2.202409999999999923e-01 -8.271000000000000574e-03 -6.867189999999999683e-01 2.091652999999999984e+00 2.084310000000000052e-01 -1.101310000000000067e-01 -2.116830000000000211e+00 -7.705039999999999667e-01 -8.264000000000000234e-01 -8.720500000000000473e-02 1.436002000000000001e+00 1.524109999999999909e-01 -3.151849999999999929e-01 -4.979190000000000005e-01 7.216580000000000217e-01 2.470420000000000116e-01 -1.230987000000000053e+00 1.561555000000000026e+00 -4.376979999999999760e-01 1.907609999999999861e-01 3.098719999999999808e-01 1.091235499999999981e+01 -1.995738999999999930e+00 9.404979999999999452e-01 1.489878999999999953e+00 6.216540000000000399e-01 5.981870000000000243e-01 -1.152768000000000015e+00 -7.957359999999999989e-01 -9.245109999999999717e-01 2.316285999999999845e+00 -8.709959999999999924e-01 3.491540000000000199e-01 4.357300000000000062e-02 1.946829999999999949e-01 1.418899999999999884e-01 3.773739999999999872e-01 -6.370900000000000452e-01 -9.590685999999999822e+00 -4.869426999999999950e+00 -1.909955999999999987e+00 -8.408999999999999808e-02 2.957139999999999769e-01 8.478832000000000590e+00 -1.090219999999999967e+00 1.675504000000000104e+00 1.272379999999999900e-01 -1.955011999999999972e+00 8.814840000000000453e-01 5.131369999999999543e-01 -2.682558999999999916e+00 3.905919999999999948e-01 1.169157999999999920e+00 -3.436109999999999998e-01 5.835550000000000459e-01 9.802999999999999214e-03 1.175710000000000033e+00 -3.835496000000000016e+00 4.248600000000000154e-01 2.032913999999999888e+00 -1.503713000000000077e+00 3.849830000000000196e-01 1.065925999999999929e+00 2.450330000000000008e-01 -3.628759000000000068e+00 1.012591399999999986e+01 -5.708796999999999677e+00 -2.080686000000000035e+00 3.087119999999999864e-01 1.527017000000000069e+00 7.358029999999999848e-01
-1.629005999999999954e+00 -3.678039000000000058e+00 2.011054999999999815e+00 -6.473160000000000025e-01 -3.974841000000000069e+00 8.344260000000000010e-01 1.134130000000000082e+00 3.434269999999999823e-01 1.059104000000000045e+00 1.599671000000000065e+00 1.209165999999999963e+00 -8.068109999999999449e-01 9.321859999999999591e-01 1.550937999999999928e+00 -1.795350999999999919e+00 -9.187159999999999771e-01 1.471519999999999939e+00 1.040370000000000045e-01 3.211774000000000129e+00 1.507530000000000037e+00 2.307640000000000136e+00 -2.340030000000000054e+00 1.236798000000000064e+00 -1.783193000000000028e+00 3.668759999999999799e-01 -2.805848999999999815e+00 -3.145078999999999958e+00 2.271602999999999817e+00 -2.865374000000000088e+00 1.517878999999999978e+00 1.373069000000000095e+00 7.458219999999999850e-01 -1.596627000000000018e+00 8.756650000000000267e-01 -2.428437999999999874e+00 2.590958999999999790e+00 -3.147107000000000099e+00 2.226700999999999819e+00 1.703354999999999952e+00 -8.206900000000000306e-02 8.120880000000000321e-01 -2.432306000000000079e+00 -2.882248000000000143e+00 -1.842098999999999931e+00 1.906482000000000010e+00 1.683230000000000004e-01 5.041099999999999748e-02 -9.816599999999999770e-01 2.113395000000000135e+00 2.448710000000000053e-01 -2.378638000000000030e+00 -1.087944999999999940e+00 1.567709999999999937e+00 1.270793999999999979e+00 3.615289999999999893e-01 7.932858999999999661e+00 -2.568496000000000112e+00 -9.630100000000000326e-01 1.360176999999999969e+00 2.909869999999999957e-01 -2.192840000000000067e-01 2.625623000000000040e+00 -2.528598999999999819e+00 2.867577999999999960e+00 1.485338000000000047e+00 -1.083107999999999960e+00 -2.189248999999999779e+00 -5.693999999999999756e-02 1.588653000000000093e+00 -3.126015000000000210e+00 -1.271781999999999968e+00 1.950457000000000107e+00 -8.609557000000000571e+00 -4.173174999999999635e+00 -3.405769999999999964e+00 -5.829900000000000082e-01 6.526530000000000387e-01 1.103939500000000073e+01 1.771967000000000070e+00 2.277921999999999780e+00 -5.547220000000000484e-01 -1.259441999999999950e+00 -2.733970000000000011e-01 1.037495000000000056e+00 -7.885720000000000507e-01 -1.954099999999999948e+00 -5.076100000000000056e-01 -1.939753000000000061e+00 -1.181206999999999896e+00 1.548704999999999998e+00 -5.372360000000000468e-01 1.637845999999999913e+00 -1.095785999999999927e+00 2.777477999999999891e+00 -1.497778000000000054e+00 -1.617530000000000079e-01 1.812114999999999920e+00 1.815628000000000020e+00 -2.013043999999999834e+00 9.133435000000000414e+00 -3.675272000000000094e+00 -4.711464000000000318e+00 1.787519999999999942e-01 -1.076737000000000055e+00 7.885910000000000419e-01
1.973149999999999904e-01 -2.139260000000000161e+00 -1.917669000000000068e+00 -1.953090999999999910e+00 -1.848680000000000045e-01 2.894559999999999911e-01 5.776609999999999800e-01 -1.764504000000000072e+00 4.306269999999999820e-01 1.623731999999999953e+00 -9.831199999999999939e-01 4.153599999999999653e-02 8.708949999999999747e-01 1.539007000000000014e+00 -3.987930000000000086e-01 -7.160999999999999310e-02 9.840100000000000235e-02 -1.020631999999999984e+00 8.704100000000000170e-01 -8.980499999999999594e-02 1.520863999999999994e+00 2.264539999999999886e-01 2.307825999999999933e+00 6.410780000000000367e-01 4.406019999999999937e-01 5.478469999999999729e-01 -4.535819999999999852e-01 -1.077929999999999999e-01 -1.758042000000000105e+00 5.822540000000000493e-01 2.042210000000000136e-01 -6.070560000000000400e-01 1.622951000000000032e+00 -1.464670000000000138e-01 -4.668950000000000045e-01 -1.412041000000000102e+00 -3.048939999999999984e-01 1.430780000000000107e-01 -1.811139999999999972e-01 1.952379999999999949e-01 4.199030000000000262e-01 9.366269999999999873e-01 7.692350000000000021e-01 3.181720000000000104e-01 -5.500040000000000484e-01 -1.446347000000000049e+00 -4.978779999999999872e-01 1.609507999999999939e+00 1.644200000000000106e+00 5.515560000000000462e-01 -1.344025999999999943e+00 -1.054205000000000059e+00 1.324851999999999919e+00 -4.053490000000000149e-01 4.658439999999999803e-01 2.157979999999999787e+00 1.899284999999999890e+00 3.536779999999999924e-01 -7.569439999999999502e-01 1.051880000000000037e-01 -2.862982000000000138e+00 1.221729999999999983e+00 -7.350919999999999677e-01 3.885149999999999992e-01 6.176960000000000228e-01 -7.912000000000000630e-03 1.211283000000000110e+00 -1.085630000000000095e+00 -6.375969999999999693e-01 -1.337193999999999994e+00 1.339250999999999969e+00 9.761400000000000632e-02 -9.663030000000000230e-01 -1.769458999999999893e+00 -1.118694000000000077e+00 -1.198541000000000079e+00 -4.497700000000000031e-01 1.416014000000000106e+00 6.770300000000000207e-01 4.706009999999999915e-01 -1.452439000000000036e+00 1.599928000000000017e+00 1.617742999999999931e+00 -4.595290000000000208e-01 -9.467759999999999510e-01 1.502399000000000040e+00 6.353200000000000514e-02 6.130860000000000198e-01 8.283939999999999637e-01 4.099400000000000266e-01 -2.684949999999999837e-01 -1.102621000000000073e+00 2.315389999999999948e-01 -1.712887999999999966e+00 3.731209999999999805e-01 1.697260999999999909e+00 6.668840000000000323e-01 -2.258319999999999883e+00 -1.222970000000000029e-01 1.086206000000000005e+00 -7.023089999999999611e-01 4.578900000000000331e-02 -3.048310000000000186e-01 -7.630759999999999765e-01 -1.424293999999999949e+00