-3.740815501700000141e+02
-3.739617139800000132e+02
-3.741834085500000242e+02
-3.708770669400000202e+02
-3.723722652999999809e+02
-3.683382856900000206e+02
-3.687078236899999979e+02
-3.698988690400000223e+02
-3.710242488000000094e+02
-3.739243197399999872e+02
-3.736229046999999923e+02
-3.731107483800000182e+02
-3.693418520800000238e+02
-3.711068218699999761e+02
-3.746568366399999945e+02
-3.714274622199999953e+02
-3.679016039100000057e+02
-3.740145706999999788e+02
-3.700942994700000099e+02
-3.683476326699999959e+02
-3.723622352400000182e+02
-3.730049961999999937e+02
-3.718537911199999826e+02
-3.701819035500000155e+02
-3.709969215400000166e+02
-3.703998013699999774e+02
-3.725696424099999717e+02
-3.738112363399999936e+02
-3.728552271500000188e+02
-3.723539084299999899e+02
-3.720977631900000233e+02
-3.714379575400000135e+02
-3.734337112900000193e+02
-3.699946737000000212e+02
-3.720394111800000019e+02
-3.740628523199999904e+02
-3.685994414699999879e+02
-3.725438126500000067e+02
-3.669259784500000023e+02
-3.720646562100000097e+02
-3.685276907599999845e+02
-3.725878673000000276e+02
-3.701066049500000190e+02
-3.735956020300000091e+02
-3.687180018099999756e+02
-3.691926321199999848e+02
-3.723769038199999954e+02
-3.700599264100000028e+02
-3.719114292799999930e+02
-3.723201210799999785e+02
