6.516301556000000161e+00 0.000000000000000000e+00 0.000000000000000000e+00 1.672020885000000012e+00 8.506486597000000316e+00 0.000000000000000000e+00 -8.766288199999999753e-02 -6.413121200000000688e-02 8.429331359000000745e+00
6.588929092999999959e+00 0.000000000000000000e+00 0.000000000000000000e+00 1.601929482000000071e+00 8.480750727000000211e+00 0.000000000000000000e+00 7.770026400000000499e-02 1.651574100000000045e-02 8.484656715999999932e+00
6.594593641000000339e+00 0.000000000000000000e+00 0.000000000000000000e+00 1.798034968000000067e+00 8.435108380999999156e+00 0.000000000000000000e+00 7.823840099999999909e-02 -1.572280940000000127e-01 8.606262544999999875e+00
6.507954930000000360e+00 0.000000000000000000e+00 0.000000000000000000e+00 1.481613418000000015e+00 8.395407176999999166e+00 0.000000000000000000e+00 3.745488899999999816e-02 -1.011174819999999946e-01 8.545121872999999368e+00
6.649421166999999855e+00 0.000000000000000000e+00 0.000000000000000000e+00 1.792982599999999982e+00 8.383685668000000035e+00 0.000000000000000000e+00 2.011588659999999917e-01 2.841777900000000065e-02 8.768335846999999461e+00
6.429209349999999823e+00 0.000000000000000000e+00 0.000000000000000000e+00 1.734904408000000009e+00 8.578214918000000466e+00 0.000000000000000000e+00 4.335142999999999636e-03 5.898620400000000041e-02 8.332471639999999624e+00
6.551708102000000089e+00 0.000000000000000000e+00 0.000000000000000000e+00 1.672997725000000102e+00 8.571342909000000176e+00 0.000000000000000000e+00 -1.236426580000000025e-01 -5.443502000000000063e-02 8.352791219000000211e+00
6.350502245000000379e+00 0.000000000000000000e+00 0.000000000000000000e+00 1.584357521000000046e+00 8.466906190999999637e+00 0.000000000000000000e+00 1.493354990000000104e-01 -2.341656000000000119e-03 8.418237746000000854e+00
6.410349458999999861e+00 0.000000000000000000e+00 0.000000000000000000e+00 1.712281815999999957e+00 8.378792880000000665e+00 0.000000000000000000e+00 7.456880100000000400e-02 -8.219699999999999923e-03 8.361883069999999307e+00
6.671447441999999839e+00 0.000000000000000000e+00 0.000000000000000000e+00 -4.868671278999999963e+00 8.555457588999999530e+00 0.000000000000000000e+00 -1.417645280000000008e-01 -3.642652700000000021e-02 8.059428656999999774e+00
6.548443608000000360e+00 0.000000000000000000e+00 0.000000000000000000e+00 1.613445095999999968e+00 8.465024904999999933e+00 0.000000000000000000e+00 4.461657200000000018e-02 3.002968099999999904e-02 8.290210320999999993e+00
6.531149700000000280e+00 0.000000000000000000e+00 0.000000000000000000e+00 1.793950506000000056e+00 8.606294077999999459e+00 0.000000000000000000e+00 7.653988800000000037e-02 -1.272819470000000064e-01 8.808972217000000882e+00
6.374735753999999588e+00 0.000000000000000000e+00 0.000000000000000000e+00 1.682954800999999945e+00 8.580751440000000230e+00 0.000000000000000000e+00 -1.014758429999999961e-01 -5.942471000000000385e-03 8.517676090000000144e+00
6.201326221000000416e+00 0.000000000000000000e+00 0.000000000000000000e+00 1.571001552000000023e+00 8.065369287999999415e+00 0.000000000000000000e+00 8.205125000000000612e-03 -2.369930699999999932e-02 1.019240551200000056e+01
6.485194963999999729e+00 0.000000000000000000e+00 0.000000000000000000e+00 1.536446210000000034e+00 8.535066462999999715e+00 0.000000000000000000e+00 7.670312599999999648e-02 2.187886299999999840e-02 8.950261175999999708e+00
6.479158605000000293e+00 0.000000000000000000e+00 0.000000000000000000e+00 1.696298813000000072e+00 8.466155060000000177e+00 0.000000000000000000e+00 -6.564030999999999685e-03 -2.751736800000000038e-02 8.571538187999999892e+00
6.635004892000000432e+00 0.000000000000000000e+00 0.000000000000000000e+00 1.587848772999999936e+00 8.294968107000000757e+00 0.000000000000000000e+00 -1.860323070000000079e-01 8.997459999999999876e-04 8.603776815999999883e+00
6.370997995999999830e+00 0.000000000000000000e+00 0.000000000000000000e+00 1.519134699000000088e+00 8.363386262000000571e+00 0.000000000000000000e+00 -5.956585500000000089e-02 -1.311473099999999926e-02 8.114342753000000741e+00
6.700226628000000240e+00 0.000000000000000000e+00 0.000000000000000000e+00 1.598071913999999927e+00 8.262249665000000576e+00 0.000000000000000000e+00 -1.130661000000000027e-01 -5.085881999999999903e-03 8.389310610000000779e+00
6.545657326999999803e+00 0.000000000000000000e+00 0.000000000000000000e+00 1.548928644000000077e+00 8.571028502000000771e+00 0.000000000000000000e+00 1.855636199999999986e-02 -1.865021099999999987e-02 8.628590959000000282e+00
6.576548715000000378e+00 0.000000000000000000e+00 0.000000000000000000e+00 1.473486909000000011e+00 8.428058467999999692e+00 0.000000000000000000e+00 1.959502399999999908e-02 1.737873399999999985e-02 8.418703754999999234e+00
6.456572431999999750e+00 0.000000000000000000e+00 0.000000000000000000e+00 1.595561702999999998e+00 8.369438649999999313e+00 0.000000000000000000e+00 -1.659895499999999857e-02 -1.094861400000000061e-02 8.155406920000000781e+00
6.381110808999999939e+00 0.000000000000000000e+00 0.000000000000000000e+00 1.736880011000000001e+00 8.239354139999999660e+00 0.000000000000000000e+00 -2.953756899999999963e-02 1.418169489999999977e-01 8.363898864999999461e+00
6.410363287000000021e+00 0.000000000000000000e+00 0.000000000000000000e+00 1.776286224999999996e+00 8.233450084999999419e+00 0.000000000000000000e+00 -4.311188700000000151e-02 6.814549799999999879e-02 8.591667602999999431e+00
6.694254835999999820e+00 0.000000000000000000e+00 0.000000000000000000e+00 -4.927006236000000428e+00 8.281277325999999661e+00 0.000000000000000000e+00 -1.099168880000000043e-01 -1.717575999999999955e-03 8.309689581000000658e+00
6.442442965999999771e+00 0.000000000000000000e+00 0.000000000000000000e+00 1.615035736000000055e+00 8.490677755000000104e+00 0.000000000000000000e+00 1.506844370000000044e-01 3.102102899999999858e-02 8.621142926999999290e+00
6.151438512000000358e+00 0.000000000000000000e+00 0.000000000000000000e+00 1.604723166000000090e+00 8.036154641999999626e+00 0.000000000000000000e+00 7.447177700000000289e-02 1.260696099999999986e-02 1.033841465100000079e+01
6.729605072000000021e+00 0.000000000000000000e+00 0.000000000000000000e+00 1.781543505999999999e+00 8.294176905000000488e+00 0.000000000000000000e+00 1.997202230000000023e-01 -3.743181999999999759e-02 8.450679195999999394e+00
6.466916169000000103e+00 0.000000000000000000e+00 0.000000000000000000e+00 1.738701343000000010e+00 8.480642596999999228e+00 0.000000000000000000e+00 2.187734399999999996e-02 -3.570992600000000294e-02 8.559115796000000387e+00
6.391852852000000418e+00 0.000000000000000000e+00 0.000000000000000000e+00 1.490976787999999997e+00 8.670456650000000209e+00 0.000000000000000000e+00 3.274521600000000060e-02 -2.676931999999999923e-03 8.386897705000000869e+00
6.420678807999999904e+00 0.000000000000000000e+00 0.000000000000000000e+00 1.757714363999999918e+00 8.538622492000000008e+00 0.000000000000000000e+00 1.539125000000000042e-02 6.713312700000000077e-02 8.434694741999999579e+00
6.545736837999999835e+00 0.000000000000000000e+00 0.000000000000000000e+00 1.830925828000000033e+00 8.328404567999999841e+00 0.000000000000000000e+00 -2.045477600000000090e-02 4.690456500000000223e-02 8.172830776999999713e+00
6.416583138000000019e+00 0.000000000000000000e+00 0.000000000000000000e+00 1.710707959999999916e+00 8.369625720000000157e+00 0.000000000000000000e+00 -2.482110599999999903e-02 -1.024806600000000012e-02 8.325527226000000169e+00
6.463060418000000418e+00 0.000000000000000000e+00 0.000000000000000000e+00 1.628885286999999904e+00 8.592996466000000666e+00 0.000000000000000000e+00 -1.067299579999999998e-01 2.370913580000000020e-01 8.580022206000000651e+00
6.472839623999999681e+00 0.000000000000000000e+00 0.000000000000000000e+00 1.734274861999999917e+00 8.426531235000000564e+00 0.000000000000000000e+00 -4.561919999999999864e-02 -2.888313400000000128e-02 8.320128409000000502e+00
6.548493986999999628e+00 0.000000000000000000e+00 0.000000000000000000e+00 1.499582301000000006e+00 8.545341420999999826e+00 0.000000000000000000e+00 6.388759700000000430e-02 -2.251339619999999930e-01 8.396119304000000838e+00
6.423929765999999653e+00 0.000000000000000000e+00 0.000000000000000000e+00 1.650592373999999918e+00 8.516854890999999483e+00 0.000000000000000000e+00 4.308229200000000120e-02 -8.259106999999999907e-03 8.269086576999999494e+00
6.421745532000000090e+00 0.000000000000000000e+00 0.000000000000000000e+00 1.633505325000000008e+00 8.426350860999999526e+00 0.000000000000000000e+00 7.575505500000000170e-02 9.939738000000000046e-03 8.255499187999999933e+00
6.697412879999999902e+00 0.000000000000000000e+00 0.000000000000000000e+00 -4.816913780000000145e+00 8.438128550000000061e+00 0.000000000000000000e+00 -3.280808300000000177e-02 1.261101079999999985e-01 8.118160274999999260e+00
6.382571352000000253e+00 0.000000000000000000e+00 0.000000000000000000e+00 1.461109962999999956e+00 8.739818134000000072e+00 0.000000000000000000e+00 8.372874299999999437e-02 1.027123500000000009e-02 8.605217580999999782e+00
6.399518668999999882e+00 0.000000000000000000e+00 0.000000000000000000e+00 1.524563662999999902e+00 8.477366814999999889e+00 0.000000000000000000e+00 -1.047286669999999975e-01 -8.964529999999999634e-04 8.205248334000000199e+00
6.387385641999999919e+00 0.000000000000000000e+00 0.000000000000000000e+00 1.549153028999999959e+00 8.327928397000000871e+00 0.000000000000000000e+00 -1.036942819999999987e-01 -5.609126999999999863e-02 8.247969469999999248e+00
6.488658499999999663e+00 0.000000000000000000e+00 0.000000000000000000e+00 1.567921738999999981e+00 8.415402242000000754e+00 0.000000000000000000e+00 -1.061304100000000014e-02 -3.291912000000000137e-03 8.227575286000000432e+00
6.547689196000000322e+00 0.000000000000000000e+00 0.000000000000000000e+00 1.443729239999999914e+00 8.420868756000000843e+00 0.000000000000000000e+00 -4.882054999999999728e-03 7.788217999999999530e-02 8.347687312999999776e+00
6.379670592000000084e+00 0.000000000000000000e+00 0.000000000000000000e+00 1.427327610000000080e+00 8.431888466000000193e+00 0.000000000000000000e+00 6.845469299999999702e-02 -2.514602519999999952e-01 8.998631860999999788e+00
6.632423078999999611e+00 0.000000000000000000e+00 0.000000000000000000e+00 -4.765210723000000037e+00 8.413388439000000218e+00 0.000000000000000000e+00 -1.910090799999999978e-02 8.614088100000000248e-02 8.147160882999999743e+00
6.468718175000000237e+00 0.000000000000000000e+00 0.000000000000000000e+00 1.548738284999999992e+00 8.619073144999999769e+00 0.000000000000000000e+00 1.684095700000000015e-02 -6.218183000000000044e-02 8.436253995999999589e+00
6.526777735999999663e+00 0.000000000000000000e+00 0.000000000000000000e+00 1.666853187999999930e+00 8.352158770999999149e+00 0.000000000000000000e+00 -7.857233900000000493e-02 2.343235869999999998e-01 8.652019793999999209e+00
6.481914410999999987e+00 0.000000000000000000e+00 0.000000000000000000e+00 1.526373836999999956e+00 8.543294978000000484e+00 0.000000000000000000e+00 -3.252055400000000013e-02 1.018670819999999977e-01 8.469575145000000305e+00
6.318254485999999837e+00 0.000000000000000000e+00 0.000000000000000000e+00 1.659655424000000101e+00 8.212916343999999924e+00 0.000000000000000000e+00 9.430970399999999421e-02 3.877253099999999897e-02 8.320066323000000708e+00
