-3.687182592400000090e+02
-3.703630809599999907e+02
-3.656133093199999848e+02
-3.720799845999999889e+02
-3.672343606499999851e+02
-3.709976605599999857e+02
-3.673492091200000118e+02
-3.700124989600000163e+02
-3.666691700900000228e+02
-3.722972998700000176e+02
-3.711608019999999897e+02
-3.661914958099999922e+02
-3.707181026999999744e+02
-3.705158192600000007e+02
-3.691724806400000034e+02
-3.707167414799999960e+02
-3.675788036499999976e+02
-3.700382181300000184e+02
-3.675943690099999799e+02
-3.717191865199999938e+02
-3.681815915899999823e+02
-3.740880332199999998e+02
-3.685647056500000076e+02
-3.653896540499999901e+02
-3.704180458299999827e+02
-3.720010406100000182e+02
-3.691860608900000216e+02
-3.668243802399999822e+02
-3.705384751000000279e+02
-3.719729249700000082e+02
-3.709907589000000030e+02
-3.721762461999999800e+02
-3.698743460800000094e+02
-3.676861318200000142e+02
-3.700545128499999805e+02
-3.674599040499999774e+02
-3.706280720099999826e+02
-3.703177770199999941e+02
-3.700035703300000023e+02
-3.681281435500000043e+02
-3.740683426200000099e+02
-3.677992180699999949e+02
-3.743316594899999927e+02
-3.667952999999999975e+02
-3.686331842600000073e+02
-3.705039711699999998e+02
-3.690819065000000023e+02
-3.700115271000000234e+02
-3.702352181300000211e+02
-3.686739347299999849e+02
