1.689699999999999980e+00 9.619799999999999462e-01 3.099439999999999973e+00 1.579830000000000068e+00 9.010299999999999976e-01 7.451670000000000016e+00 6.406920000000000393e+00 3.897289999999999921e+00 3.107549999999999812e+00 6.447099999999999831e+00 4.316340000000000288e+00 7.357540000000000191e+00 4.783750000000000391e+00 6.769790000000000418e+00 3.066089999999999982e+00 4.678989999999999760e+00 6.945450000000000124e+00 7.388410000000000366e+00 4.746690000000000076e+00 8.255200000000000315e-01 3.092950000000000088e+00 4.838359999999999772e+00 9.058599999999999985e-01 7.539299999999999891e+00 3.194189999999999863e+00 3.931290000000000173e+00 3.117719999999999825e+00 2.924310000000000187e+00 4.379789999999999850e+00 7.498470000000000191e+00 1.448080000000000034e+00 6.914310000000000400e+00 3.259529999999999816e+00 1.546810000000000018e+00 7.166350000000000442e+00 7.369480000000000253e+00 6.407079999999999664e+00 1.967889999999999917e+00 1.077329999999999899e+00 6.322390000000000398e+00 1.990019999999999900e+00 5.081229999999999691e+00 4.751120000000000232e+00 4.907230000000000203e+00 1.027479999999999949e+00 4.696950000000000180e+00 4.981399999999999828e+00 5.334749999999999659e+00 3.071359999999999868e+00 7.889000000000000234e+00 1.062840000000000007e+00 3.189480000000000093e+00 7.923110000000000319e+00 5.314169999999999838e+00 3.221169999999999867e+00 1.987880000000000091e+00 9.740400000000000169e-01 3.344520000000000159e+00 1.874149999999999983e+00 5.096160000000000245e+00 1.502059999999999951e+00 5.059969999999999857e+00 1.145429999999999948e+00 1.580610000000000070e+00 4.869480000000000253e+00 5.024300000000000210e+00 6.253639999999999866e+00 7.789550000000000196e+00 1.045050000000000034e+00 6.335020000000000095e+00 7.748249999999999638e+00 5.267409999999999926e+00 1.632220000000000004e+00 9.612899999999999778e-01 1.097730000000000095e+00 1.714520000000000044e+00 9.232399999999999496e-01 5.299959999999999560e+00 6.340530000000000221e+00 4.044769999999999754e+00 1.070140000000000091e+00 6.339470000000000383e+00 3.856739999999999835e+00 5.127460000000000129e+00 4.665930000000000355e+00 6.844979999999999620e+00 9.292799999999999949e-01 4.731410000000000338e+00 6.870750000000000135e+00 5.225780000000000314e+00 4.708249999999999602e+00 7.962099999999999733e-01 1.115399999999999947e+00 4.798739999999999561e+00 7.371999999999999664e-01 5.156900000000000261e+00 3.022120000000000140e+00 3.913749999999999840e+00 9.464399999999999480e-01 3.292930000000000135e+00 3.969180000000000152e+00 5.069700000000000095e+00 1.519660000000000011e+00 7.024540000000000006e+00 1.281709999999999905e+00 1.521570000000000089e+00 6.764759999999999884e+00 5.210239999999999760e+00 6.424409999999999954e+00 1.940639999999999921e+00 3.033300000000000107e+00 6.370730000000000004e+00 1.893610000000000015e+00 7.612099999999999866e+00 4.807170000000000165e+00 4.935089999999999755e+00 3.095369999999999955e+00 4.745490000000000208e+00 5.019739999999999647e+00 7.353139999999999787e+00 3.194999999999999840e+00 7.922209999999999752e+00 3.254179999999999851e+00 3.118290000000000006e+00 7.929579999999999629e+00 7.300970000000000404e+00 3.288910000000000000e+00 2.090850000000000097e+00 3.139609999999999790e+00 3.250589999999999868e+00 1.703549999999999898e+00 7.532359999999999722e+00 1.589590000000000058e+00 4.920239999999999725e+00 3.163980000000000015e+00 1.547719999999999985e+00 5.480159999999999698e+00 7.838989999999999903e+00 6.292539999999999800e+00 7.750469999999999970e+00 3.143409999999999815e+00 6.283809999999999896e+00 7.896840000000000082e+00 7.351390000000000313e+00 1.653529999999999944e+00 3.363960000000000061e+00 6.769009999999999749e+00
1.484050000000000091e+00 1.008820000000000050e+00 3.622129999999999850e+00 1.603790000000000049e+00 8.928399999999999670e-01 7.722070000000000434e+00 6.334950000000000081e+00 3.909590000000000121e+00 3.544560000000000155e+00 6.482359999999999900e+00 4.380560000000000009e+00 7.695420000000000371e+00 4.822739999999999583e+00 6.739289999999999559e+00 3.268419999999999881e+00 4.635139999999999816e+00 6.667099999999999582e+00 8.055350000000000676e+00 4.573159999999999670e+00 9.489900000000000002e-01 3.655850000000000044e+00 4.518640000000000434e+00 8.829299999999999926e-01 8.308220000000000383e+00 3.094660000000000188e+00 3.925320000000000142e+00 3.247630000000000017e+00 3.260310000000000041e+00 3.879929999999999879e+00 7.903270000000000017e+00 1.587930000000000064e+00 6.783389999999999809e+00 3.459880000000000067e+00 1.551930000000000032e+00 6.870700000000000252e+00 8.258609999999999118e+00 6.222120000000000317e+00 2.014380000000000059e+00 1.471000000000000085e+00 6.118739999999999846e+00 1.920909999999999895e+00 5.720060000000000144e+00 4.722030000000000172e+00 4.677509999999999835e+00 9.068699999999999539e-01 4.764479999999999826e+00 4.947180000000000355e+00 5.626999999999999780e+00 3.281709999999999905e+00 7.539069999999999716e+00 1.120700000000000029e+00 3.210900000000000087e+00 7.692999999999999616e+00 5.493389999999999773e+00 3.107359999999999900e+00 1.878959999999999964e+00 1.402409999999999934e+00 3.118660000000000210e+00 2.113989999999999814e+00 5.837629999999999875e+00 1.432679999999999954e+00 4.771230000000000082e+00 1.075399999999999912e+00 1.697200000000000042e+00 4.931589999999999918e+00 5.595030000000000392e+00 6.409909999999999997e+00 7.670989999999999753e+00 1.266040000000000054e+00 6.307489999999999597e+00 7.784299999999999997e+00 5.788230000000000430e+00 1.447049999999999947e+00 8.513100000000000112e-01 1.350190000000000001e+00 1.456250000000000044e+00 9.410699999999999621e-01 5.842120000000000424e+00 6.297679999999999723e+00 3.952329999999999899e+00 1.589159999999999906e+00 6.303359999999999630e+00 3.884300000000000086e+00 5.801739999999999675e+00 4.792749999999999844e+00 6.559770000000000323e+00 1.331879999999999953e+00 4.695079999999999920e+00 6.790399999999999991e+00 6.098989999999999689e+00 4.664649999999999963e+00 9.695000000000000284e-01 9.430800000000000294e-01 4.532359999999999722e+00 9.999000000000000110e-01 5.537899999999999601e+00 3.031350000000000211e+00 3.757099999999999884e+00 1.292350000000000110e+00 3.295209999999999972e+00 3.928739999999999899e+00 5.815649999999999764e+00 1.640020000000000033e+00 6.630370000000000097e+00 1.138619999999999965e+00 1.498369999999999980e+00 6.789080000000000226e+00 5.435209999999999653e+00 6.245510000000000339e+00 1.945429999999999993e+00 3.502489999999999881e+00 6.180419999999999803e+00 1.264440000000000008e+00 7.734379999999999811e+00 4.628099999999999881e+00 4.911279999999999646e+00 3.599839999999999929e+00 4.818450000000000344e+00 4.773679999999999701e+00 8.252150000000000318e+00 3.248390000000000111e+00 7.614670000000000272e+00 3.547610000000000152e+00 3.134999999999999787e+00 7.731950000000000323e+00 8.470670000000000144e+00 3.062180000000000124e+00 2.106689999999999952e+00 3.469860000000000166e+00 3.093080000000000052e+00 1.968839999999999923e+00 7.807080000000000020e+00 1.577830000000000066e+00 4.821399999999999686e+00 3.660169999999999924e+00 1.775870000000000060e+00 5.095579999999999998e+00 7.659740000000000215e+00 6.292950000000000266e+00 7.785669999999999646e+00 3.265750000000000153e+00 6.225520000000000387e+00 7.704959999999999809e+00 7.986159999999999926e+00 4.885900000000000243e-01 3.136080000000000201e+00 8.948859999999999815e+00
1.604989999999999917e+00 9.632300000000000306e-01 4.061169999999999725e+00 1.443580000000000085e+00 1.195759999999999934e+00 9.214700000000000557e+00 6.308519999999999683e+00 3.689000000000000057e+00 3.707959999999999923e+00 6.161520000000000330e+00 3.726240000000000219e+00 8.551109999999999545e+00 4.731419999999999959e+00 6.464739999999999931e+00 4.224300000000000388e+00 4.695570000000000022e+00 6.550189999999999735e+00 9.236649999999999139e+00 4.705759999999999721e+00 9.107800000000000340e-01 4.029440000000000133e+00 4.596829999999999750e+00 1.015989999999999949e+00 9.244410000000000238e+00 3.166920000000000179e+00 3.635759999999999881e+00 4.071279999999999788e+00 3.163839999999999986e+00 3.721569999999999823e+00 9.172779999999999490e+00 1.633420000000000094e+00 6.440820000000000434e+00 4.099429999999999907e+00 1.617869999999999919e+00 6.576329999999999565e+00 9.240410000000000679e+00 6.267380000000000173e+00 1.788750000000000062e+00 1.550589999999999913e+00 6.204749999999999766e+00 1.886449999999999960e+00 6.505779999999999674e+00 4.578430000000000000e+00 4.555679999999999730e+00 1.185529999999999973e+00 4.695310000000000095e+00 4.571690000000000254e+00 6.139700000000000379e+00 3.196660000000000057e+00 7.275789999999999758e+00 1.553290000000000060e+00 3.129799999999999915e+00 7.383539999999999992e+00 6.763770000000000060e+00 3.182910000000000128e+00 1.741440000000000099e+00 1.588370000000000060e+00 3.146150000000000002e+00 1.870670000000000055e+00 6.622950000000000337e+00 1.613280000000000047e+00 4.701679999999999637e+00 1.707680000000000087e+00 1.628740000000000077e+00 4.666489999999999583e+00 6.686469999999999914e+00 6.265419999999999767e+00 7.262830000000000119e+00 1.552480000000000082e+00 6.303749999999999964e+00 7.338260000000000005e+00 6.689799999999999969e+00 1.628139999999999921e+00 8.661299999999999555e-01 9.983800000000000452e-01 1.585599999999999898e+00 9.902499999999999636e-01 6.005700000000000038e+00 6.134479999999999933e+00 3.797250000000000014e+00 1.765200000000000102e+00 6.226479999999999571e+00 3.739850000000000119e+00 6.526690000000000325e+00 4.715550000000000352e+00 6.394070000000000142e+00 8.651100000000000456e-01 4.716820000000000235e+00 6.444110000000000227e+00 6.046990000000000087e+00 4.701120000000000410e+00 8.899200000000000443e-01 9.520899999999999919e-01 4.661950000000000038e+00 9.506299999999999750e-01 5.952510000000000190e+00 3.044550000000000090e+00 3.568909999999999805e+00 1.119329999999999936e+00 3.096270000000000078e+00 3.661519999999999886e+00 6.037569999999999659e+00 1.612440000000000095e+00 6.420630000000000059e+00 9.576000000000000068e-01 1.596600000000000019e+00 6.410249999999999559e+00 6.046319999999999695e+00 6.274060000000000414e+00 1.806000000000000050e+00 3.508239999999999803e+00 6.026139999999999830e+00 1.736760000000000081e+00 8.337109999999999133e+00 4.763469999999999871e+00 4.585420000000000051e+00 4.133639999999999759e+00 4.761190000000000033e+00 4.609910000000000174e+00 9.347989999999999355e+00 3.235959999999999948e+00 7.296669999999999767e+00 3.497910000000000075e+00 3.173950000000000049e+00 7.435179999999999900e+00 8.628040000000000376e+00 3.184860000000000024e+00 1.852240000000000109e+00 3.483839999999999826e+00 3.108000000000000096e+00 1.961920000000000108e+00 8.534969999999999501e+00 1.676230000000000109e+00 4.642949999999999910e+00 3.557329999999999881e+00 1.649769999999999959e+00 4.802500000000000213e+00 8.639359999999999928e+00 6.260440000000000005e+00 7.262599999999999945e+00 3.465819999999999901e+00 6.232160000000000366e+00 7.377379999999999605e+00 8.615809999999999746e+00 8.777599999999999847e-01 3.045560000000000045e+00 1.004104000000000063e+01
1.634439999999999893e+00 8.394000000000000350e-01 3.107229999999999936e+00 1.820389999999999953e+00 1.087409999999999988e+00 8.060460000000000846e+00 6.679249999999999687e+00 3.884560000000000013e+00 3.527089999999999836e+00 6.636519999999999975e+00 4.329119999999999635e+00 8.054880000000000706e+00 5.101790000000000269e+00 6.729669999999999597e+00 3.194539999999999935e+00 4.832180000000000142e+00 6.618990000000000151e+00 7.756599999999999717e+00 5.047410000000000174e+00 1.109059999999999935e+00 3.154329999999999856e+00 4.638840000000000074e+00 7.940599999999999881e-01 7.112079999999999735e+00 3.269699999999999829e+00 3.850150000000000183e+00 3.234570000000000167e+00 3.217560000000000198e+00 3.869679999999999787e+00 7.738990000000000258e+00 1.646279999999999966e+00 6.613039999999999807e+00 3.138980000000000103e+00 1.477889999999999926e+00 6.994860000000000078e+00 7.780960000000000321e+00 6.904440000000000133e+00 2.147920000000000051e+00 1.320300000000000029e+00 6.621620000000000061e+00 1.986459999999999892e+00 5.371340000000000003e+00 4.917089999999999961e+00 4.628669999999999618e+00 9.920299999999999674e-01 4.900649999999999729e+00 4.900999999999999801e+00 5.702219999999999622e+00 3.289390000000000036e+00 7.643839999999999968e+00 1.063749999999999973e+00 3.287549999999999972e+00 7.641189999999999927e+00 5.417819999999999858e+00 3.355789999999999829e+00 1.835909999999999931e+00 1.026350000000000096e+00 3.261899999999999800e+00 2.023600000000000065e+00 5.330569999999999808e+00 1.610579999999999901e+00 4.765690000000000204e+00 1.012599999999999945e+00 1.604249999999999954e+00 4.837030000000000385e+00 5.498280000000000278e+00 6.768849999999999589e+00 7.613459999999999894e+00 1.089210000000000012e+00 6.699230000000000018e+00 7.625810000000000421e+00 5.140240000000000364e+00 1.682029999999999914e+00 9.811999999999999611e-01 1.269900000000000029e+00 1.625629999999999908e+00 9.325499999999999901e-01 5.674380000000000202e+00 6.643950000000000244e+00 4.057979999999999698e+00 9.732899999999999885e-01 6.762089999999999712e+00 4.012599999999999945e+00 5.504120000000000346e+00 5.238760000000000083e+00 6.490470000000000184e+00 1.272199999999999998e+00 4.975760000000000183e+00 6.664220000000000255e+00 5.292290000000000383e+00 5.237339999999999662e+00 1.356919999999999904e+00 1.302820000000000089e+00 4.787219999999999587e+00 1.048720000000000097e+00 5.199069999999999858e+00 3.329940000000000122e+00 3.794130000000000003e+00 9.955199999999999605e-01 3.144449999999999967e+00 3.808390000000000164e+00 5.745759999999999756e+00 1.613439999999999985e+00 6.648600000000000065e+00 1.355250000000000066e+00 1.616209999999999924e+00 6.802229999999999777e+00 5.495199999999999640e+00 6.769960000000000200e+00 1.893729999999999913e+00 3.339100000000000179e+00 6.291680000000000383e+00 1.422190000000000065e+00 7.359359999999999680e+00 5.041150000000000020e+00 4.737529999999999575e+00 3.313099999999999934e+00 4.925609999999999822e+00 4.885279999999999845e+00 7.701520000000000366e+00 3.231970000000000010e+00 7.523550000000000182e+00 3.287809999999999899e+00 3.223500000000000032e+00 7.851589999999999847e+00 8.053829999999999600e+00 3.109579999999999789e+00 1.995999999999999996e+00 3.368500000000000050e+00 3.483800000000000008e+00 1.662740000000000107e+00 8.088359999999999772e+00 1.567160000000000108e+00 4.995890000000000164e+00 3.497479999999999922e+00 1.722520000000000051e+00 5.288619999999999877e+00 7.969380000000000130e+00 6.806849999999999845e+00 7.696810000000000151e+00 3.029669999999999863e+00 6.530079999999999885e+00 7.654700000000000060e+00 7.916739999999999888e+00 1.184050000000000047e+00 3.002060000000000173e+00 7.729890000000000150e+00
1.636800000000000033e+00 1.032180000000000097e+00 3.924720000000000208e+00 1.510739999999999972e+00 9.890700000000000047e-01 9.136100000000000776e+00 6.155660000000000132e+00 3.665280000000000094e+00 3.581519999999999815e+00 6.354580000000000339e+00 3.539930000000000021e+00 8.448150000000000048e+00 4.840790000000000148e+00 6.453050000000000175e+00 4.253160000000000274e+00 4.598029999999999617e+00 6.236229999999999940e+00 8.716139999999999333e+00 4.776150000000000340e+00 7.803700000000000081e-01 3.658290000000000042e+00 4.923259999999999970e+00 8.073000000000000176e-01 8.809499999999999886e+00 3.139180000000000081e+00 3.710749999999999993e+00 3.548849999999999838e+00 3.023299999999999876e+00 3.599540000000000184e+00 8.515980000000000771e+00 1.579509999999999970e+00 6.345699999999999896e+00 4.016770000000000174e+00 1.703610000000000069e+00 6.380760000000000431e+00 9.008720000000000283e+00 6.276810000000000223e+00 1.715810000000000057e+00 1.242080000000000073e+00 6.045049999999999812e+00 1.806550000000000100e+00 6.215799999999999770e+00 4.709850000000000314e+00 4.329279999999999795e+00 1.021700000000000053e+00 4.577639999999999709e+00 4.681530000000000413e+00 6.102520000000000167e+00 3.195230000000000015e+00 6.839220000000000077e+00 1.690190000000000081e+00 3.130459999999999798e+00 7.359549999999999592e+00 6.377360000000000362e+00 3.057949999999999946e+00 1.788140000000000063e+00 1.401750000000000052e+00 3.213029999999999831e+00 1.828130000000000033e+00 6.317580000000000418e+00 1.420870000000000077e+00 4.320009999999999906e+00 1.075199999999999934e+00 1.604619999999999935e+00 4.481440000000000090e+00 6.131739999999999746e+00 6.178429999999999644e+00 6.968060000000000365e+00 1.431059999999999999e+00 6.294539999999999580e+00 7.117939999999999934e+00 6.587279999999999802e+00 1.340780000000000083e+00 5.919100000000000472e-01 1.114900000000000002e+00 1.457999999999999963e+00 1.139280000000000070e+00 5.825009999999999799e+00 6.110299999999999621e+00 3.610640000000000072e+00 1.600279999999999925e+00 6.055399999999999672e+00 3.648299999999999876e+00 6.466039999999999566e+00 4.774969999999999715e+00 6.098580000000000112e+00 9.686000000000000165e-01 4.738760000000000083e+00 6.475679999999999659e+00 6.086640000000000050e+00 4.693060000000000009e+00 7.799700000000000522e-01 8.864699999999999802e-01 4.583910000000000373e+00 9.262200000000000433e-01 5.623870000000000147e+00 3.166360000000000063e+00 3.888310000000000155e+00 1.790200000000000014e+00 3.167739999999999778e+00 3.716950000000000198e+00 6.309960000000000235e+00 1.505889999999999951e+00 6.212869999999999671e+00 9.401100000000000012e-01 1.685980000000000034e+00 6.319399999999999906e+00 5.984040000000000248e+00 6.283999999999999808e+00 1.622840000000000060e+00 3.483960000000000168e+00 6.238489999999999647e+00 1.861720000000000041e+00 8.135080000000000311e+00 4.670490000000000030e+00 4.517830000000000013e+00 4.159440000000000026e+00 4.706109999999999793e+00 4.448839999999999684e+00 8.783640000000000114e+00 3.309299999999999908e+00 7.180410000000000181e+00 3.705099999999999838e+00 3.115050000000000097e+00 7.235030000000000072e+00 8.172679999999999723e+00 3.184200000000000141e+00 1.805050000000000043e+00 3.248089999999999922e+00 3.557020000000000071e+00 1.689119999999999955e+00 8.228579999999999117e+00 1.377920000000000034e+00 4.549559999999999604e+00 3.939709999999999823e+00 1.558040000000000092e+00 4.743030000000000079e+00 8.071509999999999962e+00 6.153669999999999973e+00 7.057680000000000398e+00 3.227780000000000094e+00 6.300790000000000113e+00 7.191740000000000244e+00 8.333660000000000068e+00 1.843739999999999934e+00 2.697029999999999816e+00 4.463999999999999913e-02
1.635369999999999990e+00 9.698799999999999644e-01 2.981780000000000097e+00 1.506650000000000045e+00 9.236499999999999710e-01 7.075370000000000381e+00 1.646400000000000086e-01 3.738389999999999880e+00 3.069269999999999943e+00 1.905699999999999894e-01 4.274269999999999570e+00 7.302200000000000024e+00 -1.532410000000000050e+00 6.474249999999999616e+00 2.996480000000000032e+00 -1.675079999999999902e+00 6.329209999999999781e+00 7.105669999999999931e+00 4.685699999999999754e+00 8.426000000000000156e-01 2.923569999999999780e+00 4.472599999999999909e+00 5.425499999999999767e-01 7.119900000000000340e+00 3.287939999999999863e+00 3.746100000000000207e+00 3.078190000000000204e+00 3.178850000000000176e+00 3.714039999999999786e+00 7.043090000000000295e+00 1.798969999999999958e+00 6.762039999999999829e+00 3.007519999999999971e+00 1.746820000000000039e+00 6.947040000000000326e+00 7.026819999999999844e+00 -7.799999999999999642e-03 1.924190000000000067e+00 1.064650000000000096e+00 -1.709700000000000109e-01 9.037699999999999623e-01 4.889319999999999666e+00 -1.507030000000000092e+00 4.631910000000000416e+00 1.075550000000000006e+00 -1.517779999999999907e+00 4.542900000000000382e+00 5.051739999999999675e+00 -2.962889999999999802e+00 7.652809999999999668e+00 1.002869999999999928e+00 -2.926299999999999901e+00 7.563089999999999868e+00 5.039450000000000429e+00 3.234900000000000109e+00 1.960499999999999909e+00 9.617400000000000393e-01 3.240479999999999805e+00 1.817250000000000032e+00 5.059759999999999813e+00 1.863709999999999978e+00 4.905260000000000176e+00 1.106729999999999992e+00 1.843669999999999920e+00 5.003700000000000259e+00 5.031189999999999607e+00 1.366199999999999914e-01 7.458249999999999602e+00 1.016520000000000090e+00 -9.419999999999999554e-03 7.303119999999999834e+00 5.014719999999999622e+00 1.593080000000000052e+00 1.024040000000000061e+00 1.022869999999999946e+00 1.622190000000000021e+00 9.398900000000000032e-01 4.903470000000000439e+00 1.692899999999999960e-01 3.876469999999999860e+00 1.080999999999999961e+00 2.457499999999999962e-01 3.917440000000000033e+00 4.936029999999999696e+00 -1.507360000000000033e+00 6.507150000000000212e+00 1.036089999999999955e+00 -1.576880000000000059e+00 6.393369999999999997e+00 4.989379999999999704e+00 4.790969999999999729e+00 9.295799999999999619e-01 9.669999999999999707e-01 4.545899999999999608e+00 6.417199999999999571e-01 4.857680000000000220e+00 3.310799999999999965e+00 3.817810000000000148e+00 9.957799999999999985e-01 3.217229999999999812e+00 3.712629999999999875e+00 5.041249999999999787e+00 1.830610000000000070e+00 6.767030000000000101e+00 1.067879999999999940e+00 1.779879999999999907e+00 6.877180000000000071e+00 4.923429999999999751e+00 -6.165000000000000341e-02 1.741309999999999913e+00 3.052210000000000090e+00 -2.831099999999999728e-01 5.416199999999999903e-01 6.672189999999999621e+00 -1.522380000000000067e+00 4.590729999999999755e+00 3.031769999999999854e+00 -1.563420000000000032e+00 4.516989999999999839e+00 7.050460000000000171e+00 -2.978229999999999933e+00 7.599199999999999733e+00 3.008550000000000058e+00 -2.942569999999999908e+00 7.543350000000000222e+00 7.063579999999999970e+00 3.222649999999999793e+00 1.907869999999999955e+00 2.927970000000000184e+00 3.213249999999999940e+00 1.806470000000000020e+00 7.023390000000000022e+00 1.821590000000000042e+00 4.840989999999999682e+00 3.026730000000000143e+00 1.836600000000000010e+00 5.013620000000000410e+00 6.985669999999999824e+00 9.188000000000000334e-02 7.447610000000000063e+00 2.956859999999999822e+00 -9.618000000000000160e-02 7.216689999999999827e+00 7.103159999999999918e+00 6.358800000000000008e-01 2.624200000000000088e+00 6.812660000000000160e+00
1.859269999999999978e+00 8.571699999999999875e-01 3.978790000000000049e+00 1.593190000000000106e+00 1.181119999999999948e+00 8.969630000000000436e+00 6.222299999999999720e+00 3.664569999999999883e+00 4.181939999999999991e+00 6.305589999999999584e+00 4.467819999999999681e+00 9.680220000000000269e+00 4.878560000000000230e+00 6.161170000000000258e+00 4.271239999999999704e+00 4.908369999999999678e+00 6.529250000000000220e+00 9.042109999999999204e+00 4.722389999999999866e+00 9.839799999999999658e-01 3.879550000000000054e+00 4.658730000000000260e+00 1.019530000000000047e+00 9.175990000000000535e+00 3.294929999999999914e+00 3.688159999999999883e+00 4.287029999999999674e+00 3.341320000000000068e+00 3.804850000000000065e+00 9.230059999999999931e+00 1.778850000000000042e+00 6.278039999999999843e+00 4.261050000000000004e+00 1.903289999999999926e+00 6.432990000000000208e+00 9.281359999999999388e+00 6.207609999999999850e+00 2.044099999999999806e+00 1.484609999999999985e+00 6.257729999999999571e+00 1.875019999999999909e+00 6.099779999999999980e+00 4.580330000000000013e+00 4.567120000000000068e+00 1.834719999999999906e+00 4.727339999999999876e+00 4.508919999999999817e+00 6.781589999999999563e+00 3.299269999999999925e+00 7.160700000000000287e+00 1.688979999999999926e+00 3.333470000000000155e+00 7.233670000000000044e+00 6.616929999999999978e+00 3.089920000000000222e+00 1.867220000000000102e+00 1.566999999999999948e+00 3.294200000000000017e+00 1.860230000000000050e+00 6.592690000000000161e+00 1.752639999999999976e+00 4.628040000000000376e+00 1.750469999999999970e+00 1.805409999999999959e+00 4.566659999999999719e+00 6.902960000000000207e+00 6.216210000000000235e+00 7.201260000000000439e+00 1.638200000000000101e+00 6.448279999999999568e+00 7.313749999999999751e+00 6.677120000000000388e+00 1.682299999999999907e+00 8.539900000000000269e-01 9.343599999999999683e-01 1.677189999999999959e+00 9.463000000000000300e-01 5.807150000000000034e+00 6.155409999999999826e+00 3.878219999999999779e+00 1.534820000000000073e+00 6.301639999999999908e+00 3.676719999999999988e+00 6.128989999999999938e+00 4.772499999999999964e+00 6.241329999999999600e+00 9.052499999999999991e-01 4.944340000000000401e+00 6.332970000000000432e+00 6.097310000000000230e+00 4.617399999999999949e+00 9.410500000000000531e-01 9.907399999999999540e-01 4.661319999999999908e+00 1.064710000000000045e+00 5.797509999999999941e+00 3.173669999999999991e+00 3.650920000000000165e+00 9.110500000000000265e-01 3.271650000000000169e+00 3.704410000000000203e+00 6.133020000000000138e+00 1.733579999999999899e+00 6.333949999999999747e+00 1.027679999999999927e+00 1.761060000000000070e+00 6.345390000000000086e+00 6.064770000000000216e+00 6.278940000000000410e+00 1.906320000000000014e+00 3.655619999999999870e+00 6.129459999999999908e+00 1.524019999999999930e+00 7.903039999999999843e+00 4.745820000000000149e+00 4.577969999999999651e+00 3.606489999999999974e+00 4.848779999999999646e+00 4.611469999999999736e+00 8.555450000000000443e+00 3.320149999999999935e+00 7.140049999999999564e+00 3.558139999999999858e+00 3.429710000000000036e+00 7.294509999999999827e+00 8.452749999999999986e+00 3.235559999999999992e+00 1.977340000000000098e+00 3.425769999999999982e+00 3.204549999999999788e+00 1.838740000000000041e+00 8.468999999999999417e+00 1.720239999999999991e+00 4.489320000000000199e+00 3.651009999999999867e+00 1.791409999999999947e+00 4.686659999999999826e+00 8.635529999999999262e+00 6.415930000000000355e+00 7.174360000000000070e+00 3.543670000000000098e+00 6.436060000000000336e+00 7.239880000000000315e+00 8.549390000000000711e+00 6.668529999999999625e+00 2.699800000000000200e+00 9.710720000000000240e+00
1.630570000000000075e+00 1.039740000000000109e+00 3.132410000000000139e+00 1.847699999999999898e+00 1.041849999999999943e+00 7.383969999999999700e+00 6.384660000000000224e+00 3.761010000000000186e+00 3.238929999999999865e+00 6.530759999999999899e+00 4.145679999999999588e+00 7.434840000000000337e+00 4.830000000000000071e+00 6.635139999999999816e+00 3.258760000000000101e+00 4.689099999999999824e+00 6.642839999999999634e+00 7.445500000000000007e+00 4.935520000000000351e+00 9.761900000000000022e-01 3.131720000000000059e+00 4.733769999999999811e+00 8.728399999999999492e-01 7.584920000000000329e+00 3.159419999999999895e+00 3.850239999999999885e+00 3.304689999999999905e+00 3.065900000000000070e+00 3.910769999999999857e+00 7.511730000000000018e+00 1.572359999999999980e+00 6.768159999999999954e+00 3.075460000000000083e+00 1.559099999999999930e+00 6.938320000000000043e+00 7.543389999999999596e+00 6.597610000000000419e+00 2.054499999999999993e+00 1.244150000000000089e+00 6.492670000000000385e+00 1.827380000000000004e+00 5.248490000000000322e+00 4.683869999999999756e+00 4.713989999999999903e+00 1.053809999999999913e+00 4.823170000000000179e+00 4.733620000000000161e+00 5.434680000000000177e+00 3.280100000000000016e+00 7.587550000000000239e+00 1.082130000000000036e+00 3.220320000000000071e+00 7.784930000000000128e+00 5.142380000000000173e+00 3.255949999999999900e+00 1.990629999999999900e+00 9.302399999999999558e-01 3.288279999999999870e+00 1.986399999999999944e+00 5.247770000000000046e+00 1.651259999999999950e+00 4.969280000000000364e+00 1.028969999999999940e+00 1.520969999999999933e+00 4.954399999999999693e+00 5.266689999999999650e+00 6.332740000000000258e+00 7.531410000000000160e+00 1.002289999999999903e+00 6.351490000000000080e+00 7.683580000000000076e+00 5.328710000000000058e+00 1.713719999999999910e+00 1.023670000000000080e+00 1.264010000000000078e+00 1.732150000000000079e+00 1.052529999999999966e+00 5.157890000000000086e+00 6.485050000000000203e+00 3.970849999999999991e+00 1.319399999999999906e+00 6.529510000000000147e+00 3.720749999999999780e+00 5.524049999999999905e+00 4.807959999999999567e+00 6.544410000000000061e+00 1.117399999999999949e+00 4.732619999999999827e+00 6.689289999999999736e+00 5.259050000000000225e+00 4.995730000000000004e+00 1.000499999999999945e+00 9.140500000000000291e-01 4.677839999999999776e+00 9.185699999999999976e-01 5.022630000000000372e+00 3.157480000000000064e+00 3.837779999999999969e+00 9.442099999999999937e-01 3.123079999999999856e+00 3.825849999999999973e+00 5.355410000000000004e+00 1.555209999999999981e+00 6.805749999999999744e+00 1.142810000000000104e+00 1.527640000000000109e+00 6.867799999999999905e+00 5.165709999999999802e+00 6.448159999999999670e+00 1.911569999999999991e+00 3.246329999999999938e+00 6.392680000000000362e+00 9.429800000000000404e-01 6.999189999999999579e+00 4.832399999999999807e+00 4.653489999999999682e+00 3.205929999999999946e+00 4.740440000000000431e+00 4.793400000000000105e+00 7.474470000000000169e+00 3.242770000000000152e+00 7.643670000000000186e+00 3.201740000000000030e+00 3.331920000000000215e+00 7.747180000000000177e+00 7.486010000000000275e+00 3.266199999999999992e+00 1.913859999999999895e+00 3.062040000000000095e+00 3.386760000000000215e+00 2.024099999999999788e+00 7.449749999999999872e+00 1.465529999999999999e+00 4.806739999999999569e+00 3.284829999999999917e+00 1.633359999999999923e+00 5.114359999999999573e+00 7.402700000000000280e+00 6.277549999999999741e+00 7.550659999999999705e+00 3.116979999999999862e+00 6.217439999999999856e+00 7.506479999999999819e+00 7.557260000000000311e+00 9.329499999999999460e-01 2.746269999999999989e+00 8.013009999999999522e+00