-3.792522207999999750e+02
-3.803458897599999773e+02
-3.870260486600000149e+02
-3.729718363700000054e+02
-3.775071272700000122e+02
-3.803682384300000194e+02
-3.835139394099999777e+02
-3.780746561500000098e+02
-3.783804956899999752e+02
-3.837491288699999927e+02
-3.783277940500000227e+02
-3.840551027199999794e+02
-3.869106151999999952e+02
-3.782831389699999818e+02
-3.811054459599999973e+02
-3.855348303000000101e+02
-3.825109126699999820e+02
-3.807744284199999925e+02
-3.831435591200000204e+02
-3.822429433600000266e+02
-3.827439668200000256e+02
-3.868363554100000101e+02
-3.771148079499999994e+02
-3.803723899600000209e+02
-3.814725013300000001e+02
-3.840180115900000146e+02
-3.806404356300000131e+02
-3.838539183199999911e+02
-3.850952248300000065e+02
-3.838885759699999767e+02
-3.881281603300000143e+02
-3.847780994199999895e+02
-3.791875363899999911e+02
-3.871482542800000033e+02
-3.818753142900000057e+02
-3.783316792300000202e+02
-3.848233720200000221e+02
-3.807813162799999986e+02
-3.840926232400000231e+02
-3.767287125199999878e+02
-3.768576461600000016e+02
-3.769157211300000085e+02
-3.788627092599999742e+02
-3.818345393500000000e+02
-3.860685010199999851e+02
-3.782548025799999891e+02
-3.788821129699999801e+02
-3.829422344100000259e+02
-3.859892724399999793e+02
-3.789934953299999734e+02
