-4.691890000000000227e-01 4.112600000000000283e-02 1.608700000000000060e-02 3.461839999999999917e-01 -2.172461000000000197e+00 -3.767759999999999998e-01 -1.034415000000000084e+00 8.820500000000000562e-02 -1.885290000000000021e-01 8.884990000000000387e-01 -2.530999999999999917e-02 6.333699999999999886e-01 -1.955908999999999898e+00 5.469190000000000440e-01 1.610603999999999925e+00 4.978090000000000015e-01 -4.845260000000000122e-01 6.726500000000000534e-02 8.633709999999999996e-01 1.059319999999999984e-01 -5.918870000000000520e-01 7.282800000000000384e-02 -1.337099999999999955e+00 -1.002985999999999933e+00 5.024710000000000010e-01 5.188500000000000056e-02 -3.682259999999999978e-01 2.494425000000000114e+00 1.034440999999999944e+00 5.113240000000000007e-01 2.841429000000000205e+00 -8.891590000000000327e-01 -9.146959999999999535e-01 -1.384112999999999927e+00 -1.379982999999999960e+00 -6.354340000000000543e-01 -4.065679999999999850e-01 5.503940000000000499e-01 -3.114439999999999986e-01 5.131799999999999695e-01 -1.728445999999999927e+00 4.677060000000000106e-01 -1.252477000000000062e+00 4.676629999999999954e-01 -1.673409999999999898e-01 2.107559999999999878e+00 1.871450000000000058e-01 -8.595230000000000370e-01 1.230779999999999985e+00 3.074520000000000031e-01 8.655289999999999928e-01 -5.340479999999999672e-01 -8.219370000000000287e-01 -1.643186999999999953e+00 -3.210529999999999773e-01 3.849270000000000191e-01 5.898449999999999527e-01 -5.596149999999999736e-01 7.479179999999999717e-01 6.699850000000000527e-01 2.708130000000000259e-01 6.496849999999999570e-01 1.427629999999999955e+00 1.946380000000000055e-01 2.309289999999999954e-01 1.764385000000000092e+00 6.368770000000000264e-01 1.427130000000000065e-01 2.050879999999999925e-01 -1.672690000000000010e-01 9.126480000000000148e-01 1.701060000000000072e-01 -4.312050000000000050e-01 -8.229319999999999968e-01 1.490730000000000111e-01 -1.497643000000000058e+00 2.215974000000000110e+00 -6.079090000000000327e-01 -9.106799999999999617e-02 -1.775625000000000009e+00 -2.456010000000000137e-01 -8.152310000000000390e-01 6.466370000000000173e-01 -2.603610000000000091e-01 -3.630169999999999786e-01 -3.587190000000000101e-01 5.000919999999999810e-01 -1.907089999999999896e-01 -7.922810000000000130e-01 6.586429999999999785e-01 1.047666999999999904e+00 9.741419999999999524e-01 2.120750000000000135e-01 1.145956999999999892e+00 2.576477000000000128e+00 -6.796339999999999604e-01 2.129884999999999806e+00 2.699070000000000080e-01 8.335299999999999654e-02 -1.772149999999999892e+00 -1.881215999999999999e+00 2.105800000000000033e-02 -3.646280000000000077e-01 -2.364709999999999868e-01 1.164359999999999978e-01 4.733410000000000117e-01 7.060729999999999507e-01 7.602299999999999613e-01 -2.828559999999999963e-01 -3.978349999999999942e-01 1.231657999999999920e+00 4.631300000000000000e-02 -1.296410000000000062e-01 -3.261539999999999995e-01 -1.862620000000000109e-01 -3.275210000000000066e-01 -1.119779000000000080e+00 -9.119789999999999841e-01 3.249839999999999951e-01 2.822109999999999896e-01 -1.768409999999999982e-01 -9.821699999999999875e-02 -1.008707000000000020e+00 9.685209999999999653e-01 3.662710000000000132e-01 7.725429999999999797e-01 -6.092980000000000063e-01 -2.582837000000000049e+00 7.728000000000000147e-02 -5.568880000000000496e-01 1.294086000000000070e+00 -6.259289999999999576e-01 -5.001590000000000202e-01 4.223469999999999724e-01 -7.492159999999999931e-01 -1.168762000000000079e+00 -5.911490000000000355e-01 -1.306619999999999893e+00 -8.065989999999999549e-01 2.021135999999999822e+00 -2.119489999999999985e-01 2.882810000000000095e-01 -1.989300000000000096e-02 5.079599999999999671e-01 -7.508780000000000454e-01 5.852389999999999537e-01 -1.696489999999999942e-01
3.505329999999999835e-01 -1.469280000000000030e-01 -1.106044999999999945e+00 1.397100000000000009e-01 -2.425336000000000158e+00 3.288130000000000219e-01 -8.695439999999999836e-01 -8.505600000000000660e-02 -3.602090000000000014e-01 1.769239999999999979e-01 -4.336600000000000177e-02 -9.735639999999999850e-01 -8.471440000000000081e-01 -1.887863000000000069e+00 -5.213900000000000201e-01 2.918709999999999916e-01 7.776880000000000459e-01 -5.480220000000000091e-01 3.647020000000000262e-01 1.461732999999999949e+00 -6.744699999999999307e-02 -8.344409999999999883e-01 1.238599999999999944e-02 3.610999999999999766e-01 8.764950000000000241e-01 2.079689999999999872e-01 6.906529999999999614e-01 -1.326524999999999954e+00 2.291509999999999936e-01 -8.476850000000000218e-01 -7.852249999999999508e-01 -1.138468999999999953e+00 -2.164379999999999915e-01 -4.626970000000000249e-01 -4.725700000000000039e-02 -2.222210000000000019e-01 2.759510000000000018e-01 -6.038989999999999636e-01 5.213940000000000241e-01 1.494710999999999901e+00 5.107190000000000341e-01 1.453939000000000092e+00 5.152999999999999942e-02 6.351020000000000554e-01 6.547830000000000039e-01 3.268000000000000071e-03 1.088019999999999959e-01 -1.593034999999999979e+00 -1.218734999999999902e+00 1.893551999999999902e+00 -7.373539999999999539e-01 -8.779959999999999987e-01 -6.738819999999999810e-01 3.214020000000000210e-01 -8.169950000000000268e-01 -1.595900000000000096e-01 -5.674869999999999637e-01 -1.017201000000000022e+00 -9.537889999999999979e-01 -6.471599999999999575e-01 1.084511999999999921e+00 -7.007250000000000423e-01 9.557599999999999429e-02 -4.904720000000000191e-01 -5.760920000000000485e-01 6.649690000000000323e-01 -1.111889999999999962e-01 1.045470000000000010e-01 -1.130990000000000051e-01 -2.315460000000000018e-01 -1.324238000000000026e+00 1.751324000000000103e+00 6.755010000000000181e-01 1.684603000000000073e+00 1.231997000000000009e+00 8.978319999999999634e-01 -1.013789999999999969e-01 -2.412707000000000157e+00 -1.782121000000000066e+00 -6.090109999999999690e-01 2.443102999999999803e+00 2.515780000000000238e-01 3.369739999999999958e-01 6.545469999999999899e-01 1.566859999999999919e+00 3.143719999999999848e-01 -2.371439999999999937e-01 -2.422050000000000036e-01 -5.168249999999999789e-01 -5.175729999999999498e-01 4.780260000000000065e-01 -1.323030000000000039e-01 -2.273700000000000027e-02 5.410509999999999486e-01 -4.499139999999999806e-01 -1.518348999999999949e+00 7.684220000000000494e-01 3.224469999999999836e-01 -5.165910000000000224e-01 -7.122939999999999827e-01 5.988899999999999779e-02 1.428431000000000006e+00 -1.363877000000000006e+00 3.257459999999999800e-01 -6.329019999999999646e-01 9.792149999999999466e-01 1.573679000000000050e+00 -5.355200000000000238e-02 -5.825439999999999507e-01 -6.122300000000000519e-01 -1.304120000000000001e-01 3.178770000000000207e-01 1.999365999999999977e+00 -2.756569999999999854e-01 1.549031000000000047e+00 3.014229999999999965e-01 1.740491000000000010e+00 -7.848650000000000349e-01 1.427515000000000089e+00 1.209433999999999898e+00 -3.215080000000000160e-01 1.901745999999999936e+00 1.245170000000000110e+00 9.314860000000000362e-01 5.609800000000000203e-02 -3.940679999999999739e-01 -1.800699999999999870e-02 -2.923140000000000072e+00 -8.746789999999999843e-01 -1.425750000000000073e-01 9.690290000000000292e-01 1.470699999999999959e-02 -5.630410000000000137e-01 1.457170999999999994e+00 -2.219609999999999916e-01 -3.300600000000000200e-01 4.060090000000000088e-01 4.283029999999999893e-01 1.310828000000000104e+00 -4.766670000000000074e-01 -7.470109999999999806e-01 4.843350000000000155e-01 -1.838518000000000097e+00 2.923749999999999960e-01 8.705549999999999677e-01 -6.512379999999999836e-01 -4.560139999999999749e-01
4.232009999999999939e-01 -2.377049999999999996e-01 7.747429999999999595e-01 7.525199999999999945e-02 -1.930999999999999939e-01 -1.670379999999999920e-01 -8.676430000000000531e-01 -4.379529999999999812e-01 9.613999999999999282e-03 4.716279999999999917e-01 -1.082905999999999924e+00 -9.969099999999999628e-01 2.694969999999999866e-01 2.143220000000000125e-01 -1.898665000000000047e+00 1.743599999999999872e-01 -4.470540000000000069e-01 -6.438869999999999871e-01 -7.348999999999999977e-02 3.058170000000000055e-01 1.026650000000000063e+00 -2.805579999999999741e-01 -7.284499999999999309e-02 -6.022910000000000208e-01 -4.759490000000000109e-01 -2.712479999999999891e-01 3.262789999999999857e-01 -5.258869999999999933e-01 3.860509999999999775e-01 -3.526409999999999823e-01 4.210099999999999953e-02 1.832100000000000048e-02 1.120576999999999934e+00 -1.994090000000000029e-01 -2.711629999999999874e-01 2.037160000000000082e-01 -6.010919999999999597e-01 -3.515579999999999816e-01 5.226920000000000455e-01 2.382849999999999968e-01 -9.474810000000000176e-01 -3.745370000000000088e-01 6.097730000000000095e-01 4.374339999999999895e-01 -1.388699999999999934e-01 -1.275280000000000025e-01 8.357210000000000472e-01 -5.202139999999999542e-01 5.814500000000000224e-02 -1.379400000000000071e-01 1.205770000000000036e-01 6.444290000000000296e-01 -3.200799999999999756e-01 -1.341193000000000080e+00 6.443100000000000216e-02 5.273579999999999934e-01 4.919470000000000232e-01 -3.323039999999999883e-01 4.614999999999999658e-02 2.857790000000000052e-01 7.411940000000000195e-01 5.393930000000000113e-01 6.665689999999999671e-01 4.283040000000000180e-01 -1.402730000000000088e-01 -4.960479999999999889e-01 -2.323409999999999920e-01 -2.176190000000000069e-01 -3.405899999999999900e-02 -6.608870000000000022e-01 3.698099999999999998e-02 5.289999999999999564e-04 1.087000000000000050e-01 3.964670000000000138e-01 5.091099999999999515e-01 -2.738530000000000131e-01 -4.466709999999999847e-01 -3.383849999999999913e-01 9.365409999999999568e-01 3.303740000000000010e-01 -2.808599999999999985e-02 2.782540000000000013e-01 1.097739999999999966e-01 1.212418999999999913e+00 -1.601360000000000006e-01 3.334389999999999854e-01 1.898557000000000050e+00 -2.941509999999999958e-01 4.667789999999999995e-01 1.666643000000000097e+00 5.912300000000000194e-02 2.669429999999999858e-01 2.408609999999999918e-01 1.073690000000000061e-01 -2.628220000000000001e-01 -3.971779999999999755e-01 -1.556618000000000057e+00 1.585749999999999937e-01 -1.101541000000000103e+00 4.658000000000000335e-02 2.466129999999999989e-01 -6.948000000000000009e-02 1.375629999999999908e-01 -1.049193999999999960e+00 5.354109999999999703e-01 5.242649999999999810e-01 8.177560000000000384e-01 -1.386040000000000050e-01 -1.581349999999999978e-01 -2.714440000000000186e-01 -2.698269999999999835e-01 2.683579999999999854e-01 1.313219999999999943e-01 -4.425959999999999894e-01 -3.955230000000000135e-01 -5.143000000000000002e-03 9.577879999999999727e-01 -2.439540000000000042e-01 2.752069999999999794e-01 2.088329999999999909e-01 -8.605850000000000444e-01 4.274399999999999727e-02 -3.970179999999999820e-01 -5.422310000000000185e-01 1.010630000000000001e-01 -3.068899999999999961e-01 -3.345159999999999800e-01 -2.432239999999999958e-01 -1.518730000000000080e-01 1.288559999999999983e-01 2.539989999999999748e-01 2.667059999999999986e-01 6.076169999999999627e-01 3.978829999999999867e-01 -3.641130000000000200e-01 6.907259999999999511e-01 2.333299999999999957e-02 -1.173418999999999990e+00 5.721979999999999844e-01 2.312470000000000081e-01 -6.323299999999999754e-02 5.002750000000000252e-01 -3.152100000000000041e-02 -5.329209999999999781e-01 -1.023800000000000057e-02 -4.921200000000000019e-01 2.955189999999999761e-01
1.968260000000000010e-01 1.478657000000000110e+00 2.147356999999999960e+00 -1.036345999999999989e+00 1.124913999999999970e+00 -2.428666999999999909e+00 3.926499999999999990e-01 1.214903999999999984e+00 -5.501850000000000351e-01 2.522336999999999829e+00 6.503219999999999557e-01 -1.986785000000000023e+00 -1.416034000000000015e+00 -1.751365000000000061e+00 9.485599999999999588e-02 2.154109999999999914e-01 4.780934000000000239e+00 1.041930000000000023e+00 -7.037120000000000042e-01 -3.574089999999999767e-01 7.257780000000000342e-01 5.949750000000000316e-01 -1.112030999999999992e+00 6.376530000000000253e-01 -1.209139999999999937e-01 1.375161999999999995e+00 -4.606169999999999987e-01 -1.743338999999999972e+00 -2.060939999999999994e-01 6.273170000000000135e-01 4.750999999999999668e-02 4.226661000000000001e+00 1.054383999999999988e+00 1.930754999999999999e+00 1.672447999999999935e+00 -1.695742000000000083e+00 -3.092610000000000081e-01 2.544310000000000183e-01 3.832139999999999991e-01 2.691290000000000071e-01 -1.747840999999999978e+00 2.778729999999999811e-01 8.541539999999999688e-01 1.529149000000000092e+00 1.444158999999999970e+00 3.223150000000000182e-01 -2.376475000000000115e+00 -1.075742999999999894e+00 -3.463660000000000072e-01 -2.312771000000000132e+00 6.093389999999999640e-01 3.082800000000000124e-02 -8.998340000000000227e-01 -9.894519999999999982e-01 1.546235000000000026e+00 1.192306000000000088e+00 1.097360000000000002e-01 -2.391380999999999979e+00 -7.974620000000000042e-01 -1.021711000000000036e+00 1.918336999999999959e+00 1.300145000000000106e+00 -2.398359999999999936e-01 1.383294000000000024e+00 2.519842999999999833e+00 6.972000000000000419e-02 -4.856770000000000254e-01 7.592999999999999923e-03 -4.302819999999999978e-01 -1.209260000000000057e-01 -4.206739999999999924e-01 -5.123469999999999969e-01 -5.547210000000000196e-01 1.429630000000000067e-01 -1.315050999999999970e+00 7.126559999999999562e-01 2.353680000000000216e+00 -9.426949999999999497e-01 9.970470000000000166e-01 -2.873575000000000212e+00 4.315890000000000004e-01 -3.073360000000000092e+00 -1.796273999999999926e+00 -5.203349999999999920e-01 -3.220542000000000016e+00 1.309689000000000103e+00 -1.498081999999999914e+00 1.000918999999999892e+00 1.818060999999999927e+00 1.000812999999999953e+00 -6.699100000000000055e-01 -8.393950000000000022e-01 -3.315919999999999979e-01 1.753741999999999912e+00 -1.478042000000000078e+00 4.614469999999999961e-01 -1.590249999999999941e+00 -5.490289999999999893e-01 1.869388000000000050e+00 1.652266000000000012e+00 8.010030000000000205e-01 -7.504530000000000367e-01 2.111953000000000191e+00 -1.822640000000000093e-01 -3.599889000000000117e+00 -1.101339000000000068e+00 2.013099999999999890e-01 1.303846999999999978e+00 2.825320000000000054e-01 1.860378000000000087e+00 8.852300000000000446e-02 -8.748479999999999590e-01 6.828009999999999913e-01 -2.486220000000000097e-01 -1.629550999999999972e+00 -9.390960000000000418e-01 2.972500000000000142e-01 1.437809999999999921e-01 -9.158309999999999507e-01 -4.139999999999999791e-01 2.417155999999999860e+00 9.240899999999999670e-01 -5.037530000000000063e-01 1.028756000000000004e+00 -3.583232000000000195e+00 1.022038000000000002e+00 1.227300000000000058e+00 3.777840000000000087e-01 -2.146999999999999950e-02 2.391860000000000097e-01 2.202720999999999929e+00 5.785460000000000047e-01 7.539879999999999916e-01 -7.605319999999999858e+00 2.648469999999999991e-01 -1.097231000000000067e+00 -1.251714999999999911e+00 7.647690000000000321e-01 -1.921672000000000047e+00 5.416619999999999768e-01 3.116149000000000058e+00 -1.857647000000000048e+00 -9.368109999999999493e-01 9.612999999999999323e-02 -2.810119999999999840e-01 -1.611070000000000002e+00 1.018656999999999924e+00
4.168020000000000058e-01 -1.571182999999999996e+00 2.127139999999999864e-01 1.405137000000000080e+00 -5.381699999999999678e-02 -1.989379999999999926e+00 -4.568209999999999771e-01 -2.003368000000000038e+00 -9.806380000000000097e-01 1.172779999999999934e-01 3.691572999999999993e+00 -4.789769999999999861e-01 -7.860049999999999537e-01 -1.221573999999999938e+00 -1.133564999999999934e+00 1.823633000000000060e+00 1.612341999999999942e+00 1.254248999999999947e+00 -2.834388000000000130e+00 -9.131999999999999493e-03 1.342270999999999992e+00 -6.941939999999999777e-01 -2.566649999999999765e-01 2.546330999999999900e+00 -7.999380000000000379e-01 -3.382890000000000064e-01 1.542620000000000102e+00 3.257300000000000195e-01 -1.255257999999999985e+00 8.346099999999999353e-02 2.502000000000000057e-02 8.559409999999999519e-01 4.322610000000000063e-01 -1.822397000000000045e+00 2.140980000000000105e-01 -7.039809999999999679e-01 -1.193689000000000000e+00 2.032150999999999819e+00 2.826287000000000216e+00 1.618864999999999998e+00 6.108980000000000521e-01 4.693990000000000107e-01 -2.160327999999999804e+00 8.248529999999999474e-01 -2.550203000000000220e+00 1.856203000000000047e+00 -1.151737000000000011e+00 -6.095829999999999860e-01 -3.230830000000000091e-01 1.388401999999999914e+00 1.916400000000000048e-01 2.890119999999999911e-01 1.221214999999999939e+00 -7.372090000000000032e-01 -4.466080000000000050e-01 2.494820000000000093e-01 -8.670900000000000274e-01 -1.829526999999999903e+00 3.219029999999999947e-01 3.867099999999999982e-01 2.097195999999999838e+00 -7.519550000000000400e-01 5.003220000000000445e-01 -3.029913000000000078e+00 -4.325539999999999941e-01 -8.119480000000000031e-01 1.816745000000000054e+00 2.373924999999999841e+00 6.001599999999999990e-02 1.910824999999999996e+00 1.823234000000000021e+00 -2.577749999999999986e+00 2.379277999999999782e+00 -2.761585000000000178e+00 -6.323720000000000452e-01 1.765179999999999971e+00 -8.985819999999999919e-01 3.065000000000000016e-03 2.259428999999999910e+00 -1.959019000000000066e+00 1.815639999999999921e+00 1.054132999999999987e+00 3.617759999999999865e-01 -7.181889999999999663e-01 -3.451546000000000003e+00 9.685920000000000085e-01 -1.963994000000000018e+00 -3.025720000000000076e-01 1.651320000000000010e-01 -2.280949999999999922e-01 -1.978380000000000138e-01 3.391060000000000185e-01 -9.314590000000000369e-01 4.341940000000000244e-01 -2.331224000000000185e+00 -1.554300000000000126e-01 -9.938489999999999824e-01 2.340309999999999890e-01 -1.547565999999999997e+00 -4.921170000000000266e-01 -3.394705999999999779e+00 1.537247000000000030e+00 1.826621000000000050e+00 -7.547789999999999777e-01 -7.345209999999999795e-01 -2.217293999999999876e+00 1.302979000000000109e+00 -1.415429999999999966e+00 4.769340000000000246e-01 2.937933000000000128e+00 -1.553045999999999927e+00 8.537590000000000456e-01 -4.273393999999999693e+00 9.325849999999999973e-01 -1.643800000000000122e-02 1.255025000000000057e+00 2.871630000000000016e-01 -7.662799999999999612e-01 -1.356408000000000058e+00 1.218539000000000039e+00 -2.424046000000000145e+00 8.844899999999999984e-02 -2.084888999999999992e+00 1.592590000000000117e-01 6.887980000000000214e-01 3.100087999999999955e+00 7.862299999999999844e-02 -3.808420000000000138e-01 1.100800000000000001e+00 -3.904005000000000170e+00 2.097069999999999990e+00 -1.550686999999999927e+00 2.459074999999999900e+00 -4.359359999999999902e-01 8.570790000000000353e-01 6.540839999999999987e-01 -1.820990000000000109e-01 2.084051999999999794e+00 2.721302000000000110e+00 6.099020000000000552e-01 1.947921000000000014e+00 4.348549999999999915e-01 -1.563863000000000003e+00 1.757660999999999918e+00 -1.162939999999999946e-01 1.069160000000000110e+00 -1.534119999999999928e+00
3.470619999999999816e-01 -1.174449999999999938e-01 3.341899999999999732e-02 1.693260000000000043e-01 -8.745600000000000596e-02 1.209810000000000052e-01 3.598810000000000064e-01 -1.278259999999999952e-01 -2.062859999999999971e-01 7.042329999999999979e-01 1.017190000000000039e-01 -1.514899999999999927e-02 4.779470000000000107e-01 -2.534190000000000054e-01 -5.497699999999999809e-02 5.005340000000000344e-01 -9.065199999999999647e-02 -3.576399999999999718e-02 4.033640000000000003e-01 -3.194009999999999905e-01 -1.693359999999999865e-01 1.393100000000000067e-02 -1.420730000000000048e-01 -3.488000000000000215e-03 2.749909999999999854e-01 -5.590410000000000101e-01 -1.525519999999999932e-01 3.332740000000000147e-01 -1.301009999999999944e-01 1.825170000000000126e-01 5.105020000000000113e-01 -9.968499999999999583e-02 2.640999999999999945e-02 3.205620000000000136e-01 -1.385609999999999897e-01 1.039579999999999949e-01 -6.335509999999999753e-01 1.771439999999999959e-01 -2.445410000000000084e-01 -2.724389999999999867e-01 1.634299999999999919e-01 5.251499999999999918e-02 -4.569400000000000128e-01 1.288410000000000111e-01 -1.964899999999999980e-01 -1.695649999999999935e-01 -2.598599999999999868e-02 3.111999999999999836e-02 -4.590119999999999756e-01 1.822739999999999916e-01 -2.982399999999999982e-02 -3.190459999999999963e-01 2.622220000000000106e-01 5.181800000000000295e-02 -4.453590000000000049e-01 3.124020000000000130e-01 -1.649770000000000125e-01 -4.557729999999999837e-01 5.521460000000000257e-01 -1.215060000000000029e-01 -3.390150000000000108e-01 2.634569999999999967e-01 -2.143629999999999980e-01 -3.944529999999999981e-01 6.910800000000000276e-02 -1.344599999999999962e-02 -5.744879999999999987e-01 1.348679999999999879e-01 -1.848410000000000053e-01 -3.865939999999999932e-01 1.409680000000000100e-01 -4.778000000000000302e-02 4.210059999999999913e-01 -1.252350000000000130e-01 -1.055999999999999994e-02 1.774850000000000039e-01 1.199540000000000051e-01 2.852779999999999760e-01 3.221890000000000032e-01 -2.033099999999999907e-01 6.400899999999999646e-02 3.998059999999999947e-01 1.127250000000000058e-01 4.064600000000000157e-02 3.996239999999999792e-01 -2.815799999999999970e-01 3.860000000000000041e-04 5.709370000000000278e-01 -2.488219999999999876e-01 6.968000000000000582e-02 3.126959999999999740e-01 -3.636010000000000075e-01 4.798999999999999794e-02 2.516889999999999961e-01 -2.636319999999999775e-01 -6.305700000000000194e-02 4.039479999999999738e-01 -2.920189999999999730e-01 4.475999999999999944e-03 3.331379999999999897e-01 -3.170100000000000140e-01 -4.526399999999999868e-02 3.527000000000000135e-01 -6.908799999999999664e-02 -1.098200000000000044e-02 3.172490000000000032e-01 -2.155489999999999906e-01 1.796129999999999949e-01 -3.385540000000000216e-01 1.695679999999999965e-01 1.912899999999999878e-01 -4.303999999999999666e-03 3.023199999999999846e-02 2.910610000000000142e-01 -1.643090000000000106e-01 1.499699999999999922e-01 6.128700000000000120e-02 -5.083520000000000261e-01 -1.680649999999999922e-01 -3.715100000000000346e-02 -4.374049999999999883e-01 2.050819999999999865e-01 2.957999999999999866e-02 -3.205660000000000176e-01 2.368349999999999900e-01 -8.984399999999999331e-02 -4.229430000000000134e-01 5.421289999999999720e-01 2.267260000000000109e-01 -2.385190000000000088e-01 3.345770000000000133e-01 9.044999999999999221e-03 -3.746240000000000125e-01 3.890469999999999762e-01 2.446109999999999951e-01 -4.065980000000000150e-01 -3.501800000000000052e-02 8.807999999999999857e-03 -4.307070000000000065e-01 5.481500000000000261e-02 1.531999999999999942e-03 -3.104900000000000021e-02 4.349999999999999700e-02 -6.987400000000000555e-02 -9.390700000000000436e-02 -2.024370000000000058e-01 -1.767050000000000010e-01
-1.862454999999999972e+00 2.203803000000000178e+00 5.744089999999999474e-01 -3.708790000000000142e-01 -1.159229000000000065e+00 2.345495999999999803e+00 1.643866999999999967e+00 2.052809999999999913e-01 -7.588340000000000085e-01 7.725880000000000525e-01 -8.290370000000000239e-01 1.257535000000000069e+00 3.133759999999999879e-01 3.946683999999999859e+00 -3.911689999999999889e-01 -1.231991000000000058e+00 -1.448258000000000045e+00 1.552977999999999970e+00 4.101899999999999991e-02 -8.734000000000000444e-03 1.555485999999999924e+00 7.021349999999999536e-01 -4.442889999999999895e-01 3.409150000000000236e-01 -1.444552999999999976e+00 -1.179035000000000055e+00 -5.956310000000000215e-01 -7.886159999999999837e-01 -1.190031000000000061e+00 -1.131126999999999994e+00 1.852880000000000082e-01 2.811100000000000265e-01 -1.338697999999999944e+00 8.023150000000000004e-01 1.509695000000000009e+00 -1.256682999999999995e+00 1.281180000000000097e-01 -2.451208999999999971e+00 -3.806889999999999996e-01 2.733280000000000154e-01 -1.099788999999999906e+00 1.102329999999999977e-01 -1.032014999999999905e+00 6.463630000000000209e-01 -1.353801999999999950e+00 2.257077000000000222e+00 1.450115999999999961e+00 -1.793822000000000028e+00 -6.210130000000000372e-01 2.929579999999999962e-01 -1.279743000000000075e+00 6.277599999999999847e-01 2.756410000000000249e-01 -9.581690000000000484e-01 8.147419999999999662e-01 7.686190000000000522e-01 -1.894649999999999945e-01 -2.208994000000000124e+00 6.643130000000000424e-01 5.754200000000000287e-02 -4.252020000000000244e-01 -1.030821999999999905e+00 1.242177000000000087e+00 -1.512369999999999992e+00 2.756350000000000189e-01 -4.408807999999999616e+00 1.632422000000000040e+00 -6.366549999999999709e-01 -1.726099999999999857e-02 -5.117850000000000454e-01 3.068600000000000147e-02 -9.468159999999999910e-01 2.243050000000000044e-01 -4.617299999999999877e-02 1.201054000000000066e+00 1.703283000000000103e+00 -4.075139999999999874e-01 1.027138000000000106e+00 2.148322999999999983e+00 1.001184999999999992e+00 -2.561158999999999963e+00 2.047339999999999993e-01 1.012261999999999995e+00 1.010337000000000041e+00 1.898590000000000000e-01 -2.290339999999999876e-01 3.452000000000000207e-03 -1.262383000000000033e+00 -4.263230000000000075e-01 5.283670000000000311e-01 -6.624999999999999778e-01 2.292929999999999968e-01 -1.438679999999999959e-01 1.104160000000000003e-01 -1.883456000000000019e+00 -7.027250000000000441e-01 -4.438380000000000103e-01 -2.064040000000000041e-01 2.147972999999999910e+00 -7.507770000000000277e-01 -8.026720000000000521e-01 1.898029999999999995e-01 -5.104030000000000511e-01 -5.063250000000000250e-01 -7.888399999999999579e-02 1.289145999999999903e+00 -5.110470000000000290e-01 1.356289999999999996e+00 9.229389999999999539e-01 -1.055241000000000096e+00 -6.429580000000000295e-01 -9.509579999999999700e-01 1.317409999999999970e-01 6.207570000000000032e-01 -1.094336999999999893e+00 -1.134015999999999913e+00 6.765870000000000495e-01 5.838839999999999586e-01 2.082299999999999984e-01 1.766381999999999897e+00 1.008874999999999966e+00 -1.527767000000000097e+00 -1.599540000000000128e-01 -2.210494000000000181e+00 3.226979999999999849e-01 7.280429999999999957e-01 -2.039900000000000047e-01 -4.118709999999999871e-01 -2.900730000000000253e-01 9.876979999999999649e-01 2.307462999999999820e+00 2.089789999999999981e-01 9.246550000000000047e-01 1.069007000000000041e+00 -6.340090000000000447e-01 -3.255099999999999660e-02 8.404949999999999921e-01 2.743063999999999947e+00 -1.392263000000000028e+00 -8.521589999999999998e-01 -6.691580000000000306e-01 1.937117999999999896e+00 8.471340000000000536e-01 5.768189999999999706e-01 -9.049040000000000417e-01 9.566820000000000324e-01 -1.138309999999999933e+00
1.220077000000000078e+00 -3.546409999999999840e-01 7.343929999999999625e-01 -1.197918000000000038e+00 1.098709999999999964e-01 -1.844000000000000083e-01 1.100343999999999989e+00 1.085064999999999946e+00 -1.722349999999999992e-01 -1.094108000000000080e+00 1.753705000000000069e+00 3.135609999999999786e-01 -1.921405999999999947e+00 -2.186310999999999893e+00 -5.414330000000000531e-01 6.289799999999999558e-02 -1.298383999999999983e+00 -2.895590000000000108e-01 -2.684327999999999825e+00 -1.134557000000000038e+00 -4.344470000000000276e-01 -2.604909999999999726e-01 -7.270229999999999748e-01 -7.940800000000000636e-02 -5.341519999999999602e-01 -7.680879999999999930e-01 -8.282880000000000242e-01 9.675839999999999996e-01 -3.853489999999999971e-01 -9.157880000000000464e-01 -1.130573000000000050e+00 -3.087030000000000052e-01 1.795736999999999917e+00 7.683360000000000190e-01 1.018143000000000020e+00 -1.085528999999999966e+00 -3.559610000000000274e-01 -2.126399999999999957e-01 -1.308462000000000014e+00 -8.404650000000000176e-01 -3.396669999999999967e-01 -4.432289999999999841e-01 3.077519000000000116e+00 2.402499999999999913e-01 4.918049999999999922e-01 -4.541479999999999961e-01 9.897699999999999554e-02 -6.443219999999999503e-01 -5.096659999999999524e-01 1.463767999999999958e+00 1.994849999999999957e-01 -5.248009999999999620e-01 -2.622180000000000177e+00 8.534220000000000139e-01 1.157369000000000092e+00 -6.454410000000000425e-01 1.639243999999999923e+00 -3.450219999999999954e-01 2.845249999999999724e-01 5.772599999999999953e-01 -1.317306000000000088e+00 -1.575175999999999910e+00 7.396209999999999729e-01 6.631569999999999965e-01 -1.897959999999999925e-01 4.984700000000000242e-01 1.771459999999999979e-01 5.886770000000000058e-01 1.032162999999999942e+00 -1.990059999999999885e-01 -1.570030999999999954e+00 -2.888800000000000257e-01 -5.338950000000000085e-01 -1.335336999999999996e+00 -1.338295000000000012e+00 -3.782670000000000199e-01 1.170573000000000086e+00 4.817389999999999728e-01 -3.519760000000000111e-01 -1.277400000000000063e-02 -1.298996000000000040e+00 -1.360959999999999948e+00 1.246366000000000085e+00 2.740589999999999971e-01 -1.317927000000000071e+00 4.173970000000000180e-01 -2.438309999999999922e-01 8.507719999999999727e-01 -1.451402000000000081e+00 7.774450000000000527e-01 -6.697009999999999907e-01 2.166999999999999829e-02 -1.564639999999999920e-01 2.089580999999999911e+00 1.166126999999999914e+00 6.466070000000000428e-01 -2.087631000000000014e+00 -1.464469999999999938e-01 8.241889999999999494e-01 7.340349999999999930e-01 1.299949000000000021e+00 -1.243619999999999948e+00 8.296860000000000346e-01 -5.470909999999999940e-01 -8.810109999999999886e-01 3.300190000000000068e-01 -4.889620000000000077e-01 3.459630000000000205e-01 1.289393000000000011e+00 5.279690000000000216e-01 -3.988559999999999883e-01 9.260399999999999743e-01 1.316364000000000090e+00 -5.614909999999999624e-01 -2.319221000000000199e+00 1.334346000000000032e+00 1.380354999999999999e+00 1.671850999999999976e+00 4.164939999999999753e-01 -8.013719999999999732e-01 -6.370179999999999731e-01 -4.250749999999999806e-01 -9.122299999999999853e-01 -1.603596999999999939e+00 -5.442240000000000411e-01 1.177634999999999987e+00 6.624069999999999681e-01 2.384129000000000165e+00 9.321100000000000219e-02 -3.616039999999999810e-01 -2.778769999999999851e-01 7.734099999999999309e-02 2.354176999999999964e+00 6.124220000000000219e-01 7.800100000000000089e-02 -7.357780000000000431e-01 4.456550000000000233e-01 3.165910000000000113e-01 3.522431999999999785e+00 1.673149999999999915e+00 -6.568770000000000442e-01 1.882425999999999933e+00 1.034435999999999911e+00 -1.221689999999999998e-01 -6.103229999999999489e-01 -2.162853000000000137e+00 4.828950000000000187e-01