1.928198000000000079e+00 -1.578746999999999900e+00 7.854309999999999903e-01 -3.762750000000000261e-01 -6.095429999999999460e-01 -2.781500000000000083e-01 9.887479999999999603e-01 2.814949999999999952e-01 8.049159999999999648e-01 -6.794300000000000339e-02 -2.556508000000000003e+00 2.702970000000000095e+00 4.890840000000000187e-01 -3.060729999999999840e-01 6.503370000000000539e-01 6.937159999999999993e-01 2.767629999999999812e-01 -5.131700000000000150e-02 8.450299999999999478e-01 -4.141110000000000069e-01 -7.889369999999999994e-01 5.355799999999999450e-01 1.984739000000000031e+00 2.898197999999999830e+00 2.436200000000000171e-02 -4.662879999999999803e-01 4.287139999999999840e-01 -6.077759999999999829e-01 -1.407464999999999966e+00 -8.611299999999999510e-01 -5.785080000000000222e-01 -2.276509999999999923e-01 2.526479999999999837e-01 2.169709999999999972e-01 6.642959999999999976e-01 -1.338087999999999944e+00 -4.845399999999999707e-02 -7.311790000000000234e-01 -1.005247999999999919e+00 5.130439999999999445e-01 -8.496139999999999803e-01 1.471565999999999930e+00 -2.292476999999999876e+00 -2.025275999999999854e+00 -1.999992999999999910e+00 -3.769040000000000168e-01 -1.788089999999999957e-01 -1.658725999999999923e+00 1.083021999999999929e+00 -7.081530000000000324e-01 -9.174710000000000365e-01 -1.318986999999999910e+00 1.398060000000000080e+00 -1.272491000000000039e+00 1.342921000000000031e+00 -5.388380000000000392e-01 4.234316999999999886e+00 1.413423000000000096e+00 -1.564111999999999947e+00 -1.143713999999999897e+00 7.526329999999999965e-01 8.487130000000000507e-01 -2.726379999999999915e-01 1.922917999999999905e+00 3.612054000000000098e+00 -7.499099999999999655e-01 1.505999999999999960e-03 -1.852330000000000088e-01 4.285200000000000120e-01 1.239770000000000039e-01 1.895637000000000016e+00 1.586248000000000102e+00 -8.569980000000000375e-01 -5.422699999999999743e-02 -2.540102000000000082e+00 -4.426792999999999978e+00 2.838837999999999973e+00 -4.168620000000000103e-01 6.294370000000000243e-01 3.082320000000000060e-01 -2.536199999999999913e-02 -2.443499999999999839e-02 -4.454540000000000166e-01 8.437040000000000095e-01 -6.528509999999999591e-01 1.683783999999999947e+00 -1.059879000000000016e+00 7.648300000000000098e-01 6.932880000000000154e-01 -2.169961999999999946e+00 -1.731610000000000094e+00 -2.085500999999999827e+00 -8.616700000000000470e-01 -1.975589999999999957e+00 2.024450000000000138e-01 2.392091999999999885e+00 1.066198999999999897e+00 2.444340000000000124e-01 -6.801300000000000401e-02
-7.825400000000000134e-01 -1.056367000000000056e+00 5.241839999999999833e+00 4.861719999999999930e-01 -1.801114000000000104e+00 -4.369629999999999903e-01 9.936469999999999470e-01 3.971827000000000218e+00 8.271519999999999984e-01 -6.809049999999999825e-01 1.787489999999999912e-01 -3.910489999999999799e-01 -1.900244000000000044e+00 5.465020000000000433e-01 -8.290400000000000547e-02 -8.970690000000000053e-01 -1.242043999999999926e+00 -1.128584000000000032e+00 2.022860000000000102e+00 -8.423819999999999641e-01 9.011399999999999966e-02 -2.114405000000000090e+00 -2.319380000000000053e-01 -1.323161999999999949e+00 6.465359999999999996e-01 9.327260000000000550e-01 -1.709694000000000047e+00 2.679210000000000202e-01 5.141280000000000294e-01 -1.340595999999999899e+00 -1.025471000000000021e+00 -1.090480000000000060e-01 -1.304160999999999904e+00 -6.545969999999999844e-01 -5.889640000000000430e-01 -3.904219999999999913e-01 -2.400760000000000005e+00 4.973790000000000155e-01 -2.670239999999999836e-01 1.037063000000000068e+00 7.157090000000000396e-01 -7.765760000000000440e-01 -7.482199999999999962e-02 -1.317088000000000036e+00 -9.196490000000000498e-01 2.033220000000000027e-01 6.543909999999999449e-01 7.415030000000000232e-01 2.578073999999999977e+00 8.898300000000000654e-02 -4.774939999999999740e-01 -1.537850000000000050e-01 -3.629430000000000156e-01 -2.654259999999999842e+00 -1.566597000000000017e+00 1.567900999999999989e+00 1.025751999999999997e+00 -1.329560999999999993e+00 -1.604570000000000052e+00 -1.456722000000000072e+00 7.378749999999999476e-01 -1.619160000000000044e-01 2.149000000000000077e-01 1.981500999999999957e+00 1.238865000000000105e+00 8.471379999999999466e-01 -6.665579999999999838e-01 2.806779999999999831e-01 1.532324000000000019e+00 8.069979999999999931e-01 -1.202477999999999936e+00 -1.307359999999999911e-01 -3.138190000000000146e-01 -1.143183999999999978e+00 5.000970000000000137e-01 2.010737999999999914e+00 -2.983140999999999821e+00 5.817390000000000061e-01 -1.381955999999999962e+00 7.592769999999999797e-01 1.164381000000000110e+00 3.103013999999999939e+00 -1.129866999999999955e+00 -1.318170999999999982e+00 1.191399000000000097e+00 1.318175000000000097e+00 1.333534999999999915e+00 -1.044961000000000029e+00 8.338710000000000289e-01 4.992809999999999748e-01 1.557733999999999952e+00 6.003720000000000168e-01 -5.503700000000000259e-02 -2.622018000000000182e+00 -6.567089999999999872e-01 2.826089999999999991e-01 -1.478699999999999980e-02 1.734218000000000037e+00 1.280842000000000036e+00
8.399940000000000184e-01 -9.031730000000000036e-01 2.060329999999999939e-01 -8.382089999999999819e-01 -1.196261999999999937e+00 9.453999999999999904e-02 -2.557481000000000115e+00 -9.706139999999999768e-01 -1.829511000000000109e+00 8.726350000000000495e-01 2.446139999999999981e-01 -8.118980000000000086e-01 2.161084999999999923e+00 -1.262920999999999960e+00 -1.645802999999999905e+00 -7.032049999999999690e-01 1.693400000000000113e-02 -4.812529999999999863e-01 -3.993700000000000028e-01 2.344934999999999992e+00 9.784779999999999589e-01 1.590918999999999972e+00 1.335609999999999964e+00 -8.025290000000000479e-01 -1.016604000000000063e+00 -2.107886999999999844e+00 2.371645000000000003e+00 1.259784999999999933e+00 7.565060000000000118e-01 -9.244639999999999525e-01 7.469430000000000236e-01 2.676259999999999750e-01 2.619927999999999813e+00 8.888249999999999762e-01 3.100100000000000078e-02 1.910225000000000062e+00 -1.478760000000000074e-01 5.748159999999999936e-01 2.445987000000000133e+00 2.580879999999999841e-01 -1.567334999999999923e+00 2.007700000000000110e-02 -8.443619999999999459e-01 2.830099999999999977e-02 1.570569000000000104e+00 -5.646210000000000395e-01 -9.178690000000000460e-01 1.471406999999999909e+00 -6.391299999999999759e-01 -1.969092000000000064e+00 -9.320199999999999596e-01 -2.318954000000000182e+00 7.059839999999999449e-01 -1.035250000000000004e+00 -1.791959999999999942e-01 -9.272749999999999604e-01 -7.960319999999999618e-01 2.112189999999999901e-01 1.479516000000000053e+00 -1.306546999999999903e+00 -8.756209999999999827e-01 -5.608180000000000387e-01 3.734529999999999794e-01 1.639875999999999889e+00 1.479398999999999909e+00 -9.859970000000000123e-01 1.444729999999999903e-01 1.242065999999999892e+00 9.559600000000000042e-02 1.436112999999999973e+00 6.429190000000000182e-01 -9.035050000000000026e-01 2.835079999999999822e-01 2.118212000000000206e+00 -1.896990000000000065e-01 -2.587088000000000054e+00 -7.983160000000000256e-01 1.416090999999999989e+00 2.719840000000000035e-01 -1.120143000000000111e+00 -1.032863000000000087e+00 -9.923210000000000086e-01 -6.915499999999999425e-02 -7.166829999999999590e-01 -1.486812999999999940e+00 1.528024999999999967e+00 -1.839264000000000010e+00 -1.746339000000000086e+00 1.361796000000000006e+00 7.906630000000000047e-01 2.096227999999999980e+00 -1.053922000000000025e+00 -4.122439999999999993e-01 3.486489000000000171e+00 -1.621470000000000133e-01 1.429030000000000022e+00 -2.909720000000000084e-01 -5.713329999999999798e-01 -1.148160000000000069e+00
1.977159000000000111e+00 -4.021310000000000162e-01 -6.683860000000000356e-01 -2.017000000000000130e-03 3.391250000000000098e-01 -7.684849999999999737e-01 -6.461179999999999701e-01 9.381000000000000449e-03 7.728300000000000169e-01 5.183309999999999862e-01 8.888139999999999930e-01 1.169027999999999956e+00 -4.448190000000000199e-01 -8.148050000000000015e-01 -6.662000000000000144e-01 1.053469999999999906e+00 -1.019203999999999999e+00 6.374410000000000354e-01 4.822890000000000232e-01 8.272439999999999793e-01 -2.219649999999999956e-01 -5.455229999999999801e-01 4.737049999999999872e-01 2.723940000000000250e-01 -2.396040000000000114e-01 5.132100000000000550e-01 8.333920000000000217e-01 5.224990000000000467e-01 3.904949999999999810e-01 -3.523189999999999933e-01 6.701150000000000162e-01 7.329890000000000017e-01 -9.226830000000000309e-01 -6.537169999999999925e-01 -2.311699999999999866e-01 1.536250000000000115e-01 -1.264099999999999946e-01 9.583359999999999657e-01 -1.083950000000000052e-01 -5.036190000000000389e-01 -1.721357000000000026e+00 -8.680229999999999890e-01 -7.777150000000000452e-01 3.899920000000000053e-01 -3.568250000000000033e-01 6.044570000000000221e-01 -1.323259999999999992e-01 -6.027959999999999985e-01 -7.957539999999999614e-01 -1.453146999999999966e+00 1.712501000000000051e+00 -2.458579999999999932e-01 9.217309999999999670e-01 -1.356269999999999976e-01 3.822479999999999767e-01 -1.122849999999999959e-01 -2.480554999999999843e+00 7.525699999999999612e-01 -4.927329999999999766e-01 8.175300000000000622e-02 -4.174450000000000105e-01 -5.947310000000000096e-01 1.784399999999999875e-01 3.644370000000000109e-01 3.749350000000000183e-01 8.674410000000000176e-01 -8.564230000000000453e-01 9.083029999999999715e-01 8.674389999999999601e-01 -2.961329999999999796e-01 -1.530021999999999993e+00 1.696193999999999980e+00 -5.387900000000000328e-02 1.460140000000000049e-01 1.292402000000000051e+00 -1.457041000000000031e+00 5.429420000000000357e-01 -5.677900000000000169e-01 -1.695618000000000070e+00 -6.969560000000000199e-01 1.231371999999999911e+00 6.017959999999999976e-01 3.996310000000000140e-01 -4.221779999999999977e-01 4.115779999999999994e-01 -9.827989999999999782e-01 -1.143645000000000023e+00 5.792429999999999524e-01 -6.024810000000000443e-01 -2.707080000000000042e-01 1.716212999999999989e+00 4.333679999999999755e-01 5.166169999999999929e-01 -1.657534999999999981e+00 1.679861999999999966e+00 2.303399999999999892e-02 7.788209999999999855e-01 -1.439280000000000004e-01 -1.749325000000000019e+00
6.104799999999999810e-02 -2.235840000000000050e-01 4.557410000000000072e-01 2.469810999999999979e+00 -4.308790000000000120e-01 -4.212790000000000146e-01 2.507550000000000057e-01 -8.971419999999999950e-01 8.035870000000000513e-01 -4.926690000000000236e-01 1.085659999999999958e-01 -2.934550000000000214e-01 -7.819899999999999629e-01 -1.445000000000000062e+00 -6.791390000000000482e-01 -2.995700000000000099e-02 1.643696999999999964e+00 -5.007390000000000452e-01 1.424832000000000098e+00 9.660760000000000458e-01 -5.703549999999999454e-01 8.140610000000000346e-01 -2.505120000000000124e-01 -8.121930000000000538e-01 1.042288000000000103e+00 2.498660000000000048e-01 1.115660000000000096e+00 -6.776410000000000489e-01 1.829409000000000063e+00 2.278270000000000017e+00 -1.207159000000000093e+00 -4.642519999999999980e-01 -1.114633999999999903e+00 3.700240000000000196e-01 -7.395410000000000039e-01 -1.479687999999999892e+00 -5.788050000000000139e-01 3.206149999999999833e-01 -2.813766999999999907e+00 3.107420000000000182e-01 4.067279999999999784e-01 1.544890000000000096e+00 7.165909999999999780e-01 3.978780000000000094e-01 -1.777725999999999917e+00 -9.730290000000000328e-01 2.379650000000000098e-01 2.315577999999999914e+00 -2.938620000000000121e-01 -6.145500000000000407e-01 5.813651000000000124e+00 -1.113520000000000065e+00 5.136420000000000430e-01 5.000189999999999912e-01 3.593370000000000175e-01 7.148160000000000069e-01 -3.688781000000000088e+00 1.452658999999999923e+00 -6.113699999999999690e-02 1.156670000000000087e+00 -4.773870000000000058e-01 4.026109999999999967e-01 -1.119728000000000057e+00 1.881040000000000045e+00 -2.627659999999999996e-01 2.008284999999999876e+00 -2.576339999999999741e-01 -5.565500000000000308e-02 -8.736960000000000282e-01 -1.441122999999999932e+00 -6.494800000000000573e-02 1.204636999999999958e+00 2.989160000000000150e-01 -1.904784000000000033e+00 -9.768740000000000201e-01 -1.142630999999999952e+00 1.329183000000000003e+00 -7.912500000000000089e-02 -1.662808000000000064e+00 -1.857900000000000107e-01 -5.170630000000000503e-01 -1.289042999999999939e+00 -3.663699999999999735e-01 -4.611549999999999816e-01 1.371966000000000019e+00 4.936700000000000116e-02 -7.309069999999999734e-01 1.604932000000000025e+00 -2.986539999999999750e-01 -1.261349000000000053e+00 -3.852670000000000261e-01 -1.860460999999999920e+00 3.508839999999999737e-01 -6.061849999999999739e-01 7.816309999999999647e-01 -3.447620000000000129e-01 -1.018291999999999975e+00 1.739759999999999918e-01 9.685430000000000428e-01
1.644387000000000043e+00 -3.348920000000000230e-01 2.933140000000000192e-01 5.612160000000000482e-01 -4.359990000000000254e-01 8.589700000000000113e-01 -1.787525000000000031e+00 -1.440630999999999995e+00 1.783292000000000099e+00 1.280831000000000053e+00 2.381169999999999953e-01 1.675049000000000010e+00 6.433159999999999989e-01 -1.034283000000000063e+00 6.216049999999999631e-01 -2.655304000000000109e+00 -8.558040000000000092e-01 3.598560000000000092e-01 3.138050000000000006e-01 6.909729999999999484e-01 1.773599999999999899e-01 -1.876430999999999960e+00 -4.480999999999999740e-03 -6.151450000000000529e-01 1.243718000000000101e+00 -3.298929999999999918e-01 -1.215610000000000079e+00 2.686412999999999940e+00 1.661940999999999891e+00 -1.700180000000000025e-01 -6.156319999999999570e-01 1.471587999999999896e+00 -3.588000000000000078e-01 -5.375189999999999690e-01 -2.490870000000000029e-01 3.174919999999999964e-01 7.179429999999999978e-01 1.065449000000000090e+00 3.598199999999999732e-01 1.801159999999999983e-01 1.029854000000000047e+00 -1.441678999999999933e+00 -1.633159999999999890e-01 -1.362206000000000028e+00 -1.504464000000000024e+00 -2.286130000000000106e-01 2.381810000000000038e-01 3.851684999999999803e+00 3.310699999999999754e-01 -6.221139999999999448e-01 -3.590340000000000198e-01 -1.947864999999999958e+00 -1.283871999999999902e+00 2.574040000000000217e-01 -3.983679999999999999e-01 5.539659999999999584e-01 5.508210000000000051e-01 1.312480000000000036e-01 9.733600000000000030e-01 3.405520000000000214e-01 -4.572640000000000038e-01 3.889279999999999959e-01 -2.918197999999999848e+00 7.877790000000000070e-01 -2.242110999999999965e+00 9.376400000000000012e-02 -7.344960000000000377e-01 -1.959880999999999984e+00 1.323026999999999953e+00 -4.385390000000000121e-01 2.253209999999999935e-01 -8.597139999999999782e-01 -2.366439999999999932e-01 -9.150859999999999550e-01 -2.759249999999999758e-01 1.026677999999999980e+00 1.877677000000000040e+00 -2.050599999999999923e-01 3.844620000000000259e-01 9.759149999999999769e-01 8.313570000000000126e-01 9.411100000000000021e-01 8.749419999999999975e-01 5.908800000000000163e-02 1.546240000000000059e+00 3.921359999999999846e-01 4.765659999999999896e-01 -1.448898999999999937e+00 -2.786129999999999995e-01 3.205379999999999896e-01 -1.425669999999999993e-01 1.509749999999999981e-01 -1.416504999999999903e+00 -2.973129999999999939e-01 -3.874400000000000066e-01 -2.015191000000000177e+00 -4.540370000000000239e-01 9.270699999999999497e-01 -1.196217000000000086e+00
2.574056000000000122e+00 2.224349999999999938e-01 2.863229999999999942e-01 9.554390000000000382e-01 2.521546999999999983e+00 -1.422115000000000018e+00 -5.134159999999999835e-01 -9.183249999999999469e-01 2.717232000000000092e+00 1.127124999999999932e+00 4.220360000000000222e-01 8.937599999999999989e-01 6.836290000000000422e-01 9.542540000000000466e-01 8.300429999999999753e-01 -2.974911999999999779e+00 -2.005789000000000044e+00 1.310124999999999984e+00 2.390970999999999957e+00 -1.707346999999999948e+00 -3.302860000000000240e-01 -4.437501000000000140e+00 -1.616192000000000073e+00 -1.587385000000000046e+00 -6.277129999999999654e-01 6.627939999999999943e-01 -5.449180000000000135e-01 -9.928679999999999728e-01 3.672739999999999894e-01 -1.444598000000000049e+00 -1.974085000000000090e+00 -9.496289999999999454e-01 -1.759271000000000029e+00 1.688139999999999918e-01 1.942720000000000002e-01 -2.203288999999999831e+00 3.505030999999999786e+00 1.446093000000000073e+00 -2.422845000000000137e+00 -6.989199999999999580e-02 -1.545384000000000091e+00 6.138876999999999917e+00 1.336246999999999963e+00 1.241198999999999941e+00 -7.441670000000000229e-01 -1.070267000000000079e+00 1.167672000000000043e+00 7.724800000000000555e-01 2.738019999999999898e-01 1.929494000000000042e+00 1.478952000000000044e+00 -2.523163999999999962e+00 -1.077828999999999926e+00 1.751100000000000101e+00 3.509050000000000225e-01 -6.829889999999999572e-01 9.199960000000000360e-01 -2.154265000000000096e+00 1.463589999999999891e-01 4.707489999999999730e-01 8.680280000000000218e-01 8.550870000000000415e-01 1.994993999999999934e+00 -2.070250000000000146e+00 -9.650760000000000449e-01 1.223486000000000073e+00 -1.037185999999999941e+00 -5.351800000000000307e-02 -1.629280999999999979e+00 2.285839999999999872e+00 -1.238979000000000052e+00 9.882000000000000159e-03 7.413340000000000485e-01 3.473990000000000133e-01 6.959089999999999998e-01 4.967340000000000089e-01 -1.245900999999999925e+00 -1.180431999999999926e+00 4.000734999999999708e+00 1.496275999999999939e+00 -3.658009999999999873e-01 -1.326786000000000021e+00 1.685022000000000020e+00 3.902349999999999985e-01 3.333975999999999829e+00 6.725569999999999604e-01 1.149809000000000081e+00 -2.211850999999999789e+00 1.173832999999999904e+00 -5.103481999999999630e+00 -1.443456000000000072e+00 -3.675140000000000073e-01 2.552260000000000084e-01 2.082450000000000134e-01 -1.045449999999999990e+00 -1.727948999999999957e+00 1.266990000000000061e-01 -2.085679999999999978e+00 -8.233570000000000055e-01
-2.008058999999999816e+00 1.913600000000000023e-02 3.376259999999999817e-01 -1.047959000000000085e+00 1.004262999999999906e+00 -1.144389000000000101e+00 1.544465999999999894e+00 4.173479999999999968e-01 8.092530000000000001e-01 -7.788169999999999815e-01 2.501568999999999932e+00 -9.225100000000000522e-01 -1.300821999999999923e+00 1.940422000000000091e+00 -8.999160000000000492e-01 -7.142450000000000188e-01 -2.761669999999999958e-01 -1.689999999999999836e-02 -6.899370000000000225e-01 -9.241080000000000405e-01 -8.037269999999999692e-01 1.290378999999999943e+00 1.421600000000000086e-01 2.099600000000000077e-01 1.249641999999999920e+00 -1.215964999999999963e+00 1.999559999999999949e-01 7.676089999999999858e-01 1.656018999999999908e+00 1.390174999999999939e+00 -1.386104999999999920e+00 1.637556000000000012e+00 3.646159999999999957e-01 -5.963000000000000418e-03 -1.167518999999999973e+00 -1.212430000000000035e-01 -2.249400000000000011e-02 1.507630000000000081e-01 -1.694229999999999903e-01 7.577699999999999714e-02 -1.505454999999999988e+00 1.102197000000000093e+00 1.177594000000000030e+00 8.805399999999999894e-01 -8.668350000000000222e-01 4.498380000000000156e-01 5.614630000000000454e-01 1.049900000000000000e-01 1.544369999999999910e-01 9.427199999999999469e-02 2.440154000000000156e+00 1.123969999999999969e-01 -4.129999999999999991e-03 -2.010750000000000037e-01 5.056190000000000406e-01 8.408000000000000543e-03 -1.260408999999999891e+00 -1.401639000000000079e+00 -7.770219999999999905e-01 -1.049871999999999916e+00 7.003939999999999610e-01 4.466749999999999887e-01 -2.251819999999999933e-01 5.362470000000000292e-01 6.767570000000000530e-01 -8.283100000000000185e-02 -1.402115000000000000e+00 -2.783856000000000108e+00 -1.164819999999999967e+00 4.329399999999999915e-01 -5.508450000000000291e-01 1.221540999999999988e+00 -1.833396000000000026e+00 1.312791999999999959e+00 -1.220970000000000111e+00 6.103460000000000552e-01 7.037780000000000147e-01 -7.519040000000000168e-01 1.400347000000000008e+00 -1.015031999999999934e+00 2.004776999999999809e+00 -1.034497000000000000e+00 -1.150697000000000081e+00 7.042180000000000106e-01 1.674070000000000003e-01 -2.496936999999999962e+00 -6.840359999999999774e-01 2.862887000000000182e+00 2.721150000000000180e+00 -9.278739999999999766e-01 1.335908000000000095e+00 9.358680000000000332e-01 2.219440000000000024e-01 -2.067559999999999953e-01 -3.135794000000000192e+00 3.625300000000000189e-01 -1.541431999999999913e+00 -8.074139999999999651e-01 1.039978999999999987e+00
-1.971680000000000099e-01 -3.375070000000000014e-01 5.427659999999999707e-01 2.545160000000000200e-01 8.751130000000000297e-01 1.720455000000000068e+00 1.818343999999999960e+00 9.713319999999999732e-01 2.127940000000000109e-01 -3.275859999999999883e-01 5.302379999999999871e-01 1.067769999999999969e-01 2.373099999999999932e-01 -6.959070000000000533e-01 -1.434925000000000006e+00 1.143761000000000028e+00 -4.296389999999999931e-01 2.146298999999999957e+00 -6.498390000000000555e-01 6.499719999999999942e-01 -2.079999999999999905e-02 6.264809999999999546e-01 2.149830000000000074e-01 -5.881079999999999641e-01 -2.708030000000000159e-01 -1.285698000000000008e+00 -1.334216000000000069e+00 2.170749999999999902e-01 4.987800000000000011e-01 -1.044424000000000019e+00 6.298099999999999532e-02 6.712089999999999446e-01 -1.248682000000000070e+00 1.588789000000000007e+00 7.589289999999999647e-01 -1.948149999999999882e-01 -9.527069999999999705e-01 -7.888669999999999849e-01 1.124052999999999969e+00 -8.429910000000000458e-01 -4.051330000000000209e-01 -6.144300000000000317e-01 1.262337999999999960e+00 6.281449999999999534e-01 1.145229999999999998e-01 3.349329999999999807e-01 2.975130000000000274e-01 1.656482999999999928e+00 4.642899999999999805e-01 -1.578259999999999996e+00 -8.545949999999999935e-01 2.278910999999999909e+00 -1.790724999999999900e+00 1.362230000000000107e-01 -7.810690000000000133e-01 1.843229999999999869e-01 1.236080000000000068e+00 -1.433111000000000024e+00 1.584254000000000051e+00 1.955306999999999906e+00 3.470179999999999931e-01 -1.008461999999999970e+00 -6.867529999999999468e-01 -1.054481000000000002e+00 4.619909999999999850e-01 -3.475429999999999908e-01 8.273059999999999858e-01 -8.964250000000000274e-01 -2.881564000000000014e+00 -5.767099999999999449e-01 -7.717559999999999976e-01 1.666002999999999901e+00 -1.697384999999999922e+00 -5.706390000000000073e-01 1.269366999999999912e+00 -1.548977999999999966e+00 8.865619999999999612e-01 3.288510000000000044e-01 -8.759479999999999489e-01 3.791900000000000132e-02 6.145960000000000312e-01 -1.035284000000000093e+00 -1.036173000000000011e+00 -6.921490000000000142e-01 5.705149999999999944e-01 9.979590000000000405e-01 -1.379418000000000033e+00 1.999873000000000012e+00 1.272890000000000132e-01 -4.276110000000000189e-01 -9.895180000000000087e-01 -1.665929999999999911e-01 8.005790000000000406e-01 -7.793639999999999457e-01 7.144200000000000550e-01 -6.680469999999999464e-01 -2.149699999999999875e-02 6.708530000000000326e-01 -1.213079999999999936e+00
-1.365186999999999928e+00 9.032000000000000028e-01 -9.217899999999999705e-02 1.097593999999999959e+00 1.115740000000000065e-01 -7.896790000000000198e-01 -5.122550000000000159e-01 -2.077670000000000072e-01 2.707339999999999747e-01 -5.527619999999999756e-01 3.917300000000000226e-01 5.706599999999999867e-02 1.287066000000000043e+00 -4.286860000000000115e-01 4.904240000000000266e-01 1.066273000000000026e+00 1.647367000000000026e+00 2.326219999999999954e-01 3.826370000000000049e-01 9.952400000000000135e-02 6.325300000000000367e-01 -8.644849999999999479e-01 5.805660000000000265e-01 -8.476529999999999898e-01 8.913400000000000212e-01 1.163141999999999898e+00 1.868819999999999926e-01 7.620899999999999896e-02 4.505500000000000060e-01 7.260140000000000482e-01 1.039868000000000015e+00 -4.240709999999999757e-01 2.384350000000000080e-01 -6.273199999999999610e-02 -1.485762999999999945e+00 -8.790710000000000468e-01 -2.122020000000000017e-01 1.664258999999999933e+00 5.661239999999999606e-01 4.615960000000000063e-01 -9.540899999999999381e-02 2.065182000000000073e+00 -2.493889999999999996e-01 9.302660000000000373e-01 6.312560000000000393e-01 1.547499999999999987e-01 -8.465289999999999759e-01 -7.957760000000000389e-01 -1.886140000000000039e-01 -1.004270000000000024e-01 -8.076229999999999798e-01 5.714899999999999841e-02 -7.920289999999999830e-01 -9.959729999999999972e-01 -1.229110000000000064e-01 1.349196999999999980e+00 6.178590000000000471e-01 -4.049579999999999846e-01 -3.487500000000000044e-01 8.171699999999999520e-01 8.246639999999999526e-01 -7.703400000000000525e-02 -5.572259999999999991e-01 -3.612770000000000148e-01 -1.122373999999999983e+00 -7.085380000000000011e-01 -3.951140000000000208e-01 8.583260000000000334e-01 1.063638000000000083e+00 2.067190000000000139e-01 -7.791700000000000015e-02 1.183149000000000006e+00 -1.814043999999999990e+00 7.123599999999999377e-02 1.190590999999999955e+00 1.376910000000000078e-01 1.184549000000000074e+00 -1.046548999999999952e+00 -1.187842999999999982e+00 -9.177119999999999722e-01 -7.156839999999999868e-01 2.327269999999999894e-01 -7.546270000000000477e-01 -1.261552000000000007e+00 1.800122999999999918e+00 -2.409709999999999908e-01 5.427920000000000522e-01 -8.851949999999999541e-01 9.765639999999999876e-01 -1.774369000000000085e+00 8.070279999999999676e-01 -2.283605999999999803e+00 8.448899999999999466e-02 -2.644779999999999909e-01 -1.319565000000000099e+00 -1.595449999999999924e-01 -1.079987000000000030e+00 -8.588120000000000198e-01 -1.655399999999999927e-01
7.909580000000000499e-01 -1.194150999999999962e+00 8.670300000000000229e-02 -2.087070000000000036e-01 -6.225319999999999743e-01 -8.737999999999999240e-03 -1.953972999999999960e+00 4.876389999999999891e-01 -8.678029999999999911e-01 9.908059999999999645e-01 4.514499999999999763e-02 3.564852999999999827e+00 2.422100000000000086e-01 -1.620973999999999915e+00 -6.560000000000000275e-01 -5.156009999999999760e-01 -7.709890000000000354e-01 -3.528649999999999842e-01 3.560440000000000271e-01 2.834010000000000140e-01 -2.214079999999999937e-01 -6.090109999999999690e-01 7.154420000000000224e-01 -3.266109999999999847e-01 3.024209999999999954e-01 1.211462000000000039e+00 -5.017200000000000132e-02 -5.689079999999999693e-01 -4.421570000000000222e-01 -2.786839999999999873e-01 8.287970000000000059e-01 6.371710000000000429e-01 -3.913209999999999744e-01 -6.191309999999999869e-01 -1.651640999999999915e+00 -1.938370000000000093e-01 1.388978999999999964e+00 -1.222628000000000048e+00 1.737206999999999946e+00 -1.177680999999999978e+00 1.780899999999999983e-01 6.310270000000000046e-01 9.714650000000000230e-01 1.404255000000000031e+00 -2.088115999999999861e+00 1.917860000000000120e-01 1.245606999999999909e+00 1.873213000000000017e+00 8.984000000000000666e-03 7.833860000000000268e-01 1.756493000000000082e+00 -1.487924999999999942e+00 2.203679000000000165e+00 5.090900000000000425e-01 5.681869999999999976e-01 7.604950000000000321e-01 7.268700000000000161e-02 -3.631639999999999868e-01 -3.987811999999999912e+00 3.228857000000000088e+00 -8.114959999999999951e-01 1.036664999999999948e+00 -2.161805000000000199e+00 4.003260000000000152e-01 5.956439999999999513e-01 -9.889879999999999782e-01 -5.231059999999999599e-01 -6.566299999999999915e-02 -2.217260000000000064e-01 8.521499999999999908e-02 -2.032129999999999992e+00 3.277229000000000170e+00 1.359623999999999944e+00 -1.481136000000000008e+00 -1.247559000000000085e+00 1.961538999999999922e+00 2.547524000000000122e+00 5.685000000000000053e-01 8.595310000000000450e-01 -6.215600000000000291e-02 9.938719999999999777e-01 -4.090690000000000159e-01 -1.580586000000000046e+00 -3.486540000000000195e-01 -2.333889999999999798e+00 3.955719999999999792e-01 -1.998774000000000051e+00 1.540310000000000012e-01 2.981199999999999850e+00 -4.762580000000000147e-01 1.056909999999999933e-01 -7.505070000000000352e-01 -2.636324000000000112e+00 5.156030000000000335e-01 -1.056551000000000018e+00 -3.802315999999999807e+00 -5.005359999999999809e-01 1.029236000000000040e+00 1.018231000000000108e+00