6.091432064000000146e+00 0.000000000000000000e+00 0.000000000000000000e+00 1.504692233999999962e+00 7.938103207000000161e+00 0.000000000000000000e+00 -1.056882200000000029e-02 5.686308699999999966e-02 1.059045326400000064e+01
6.107173172000000427e+00 0.000000000000000000e+00 0.000000000000000000e+00 1.528875006000000036e+00 7.940829061999999716e+00 0.000000000000000000e+00 -2.126512599999999878e-02 8.715987799999999619e-02 1.039809503100000043e+01
6.569739310000000110e+00 0.000000000000000000e+00 0.000000000000000000e+00 1.731570410000000004e+00 8.543206694000000212e+00 0.000000000000000000e+00 -1.276093699999999997e-02 -8.887877000000000624e-03 8.416201548000000088e+00
6.652515400000000412e+00 0.000000000000000000e+00 0.000000000000000000e+00 1.554405604000000052e+00 8.652242097000000243e+00 0.000000000000000000e+00 -1.777769999999999915e-03 -1.914307000000000075e-03 8.522903171999999472e+00
6.200113272000000286e+00 0.000000000000000000e+00 0.000000000000000000e+00 1.568180480999999959e+00 8.102272414999999839e+00 0.000000000000000000e+00 -8.535154699999999983e-02 -2.484870000000000134e-02 1.016116132299999997e+01
6.360694686999999625e+00 0.000000000000000000e+00 0.000000000000000000e+00 1.537980163000000067e+00 8.317664840000000837e+00 0.000000000000000000e+00 -5.275533200000000200e-02 -2.881488100000000052e-02 9.834277614999999528e+00
6.286522306000000171e+00 0.000000000000000000e+00 0.000000000000000000e+00 1.597674868999999997e+00 8.135669777000000380e+00 0.000000000000000000e+00 -2.569347300000000139e-02 1.325246250000000070e-01 1.005401145499999949e+01
6.640111565999999854e+00 0.000000000000000000e+00 0.000000000000000000e+00 1.697179865999999926e+00 8.630545002999999937e+00 0.000000000000000000e+00 3.713478999999999999e-03 -5.277424000000000177e-03 8.319932536999999684e+00
6.625026785000000196e+00 0.000000000000000000e+00 0.000000000000000000e+00 1.778160576000000104e+00 8.639365771999999666e+00 0.000000000000000000e+00 -4.973856599999999795e-02 -3.713588500000000042e-02 8.688602660999999117e+00
6.635480688000000349e+00 0.000000000000000000e+00 0.000000000000000000e+00 1.965570967999999974e+00 8.454834166999999567e+00 0.000000000000000000e+00 -1.964442699999999903e-02 7.843004000000000642e-03 8.325146488999999761e+00
6.496457186999999855e+00 0.000000000000000000e+00 0.000000000000000000e+00 1.749764317999999985e+00 8.413784197000000020e+00 0.000000000000000000e+00 -8.164116899999999954e-02 -1.382781200000000009e-02 8.783098953999999736e+00
6.545856716000000297e+00 0.000000000000000000e+00 0.000000000000000000e+00 1.770532720999999921e+00 8.493436376000000010e+00 0.000000000000000000e+00 -8.130273999999999834e-02 -3.572405299999999867e-02 8.747607862000000623e+00
6.510381161999999833e+00 0.000000000000000000e+00 0.000000000000000000e+00 1.552526888000000049e+00 8.522828837000000490e+00 0.000000000000000000e+00 2.236360100000000031e-02 -3.485729099999999858e-02 8.266732483000000187e+00
6.244211861000000141e+00 0.000000000000000000e+00 0.000000000000000000e+00 1.494080850000000016e+00 8.126618194000000628e+00 0.000000000000000000e+00 1.183955720000000045e-01 1.236528679999999991e-01 1.024707190800000056e+01
6.646744906000000341e+00 0.000000000000000000e+00 0.000000000000000000e+00 1.699546255000000006e+00 8.677939178999999115e+00 0.000000000000000000e+00 -4.328894400000000281e-02 2.407245599999999902e-02 8.534133566999999587e+00
6.558517440000000143e+00 0.000000000000000000e+00 0.000000000000000000e+00 1.814838769999999935e+00 8.781163089999999727e+00 0.000000000000000000e+00 1.733292999999999900e-03 -3.343310999999999852e-03 8.204478794999999991e+00
6.277975418999999668e+00 0.000000000000000000e+00 0.000000000000000000e+00 1.615941725000000107e+00 8.109624572999999614e+00 0.000000000000000000e+00 -6.635554899999999978e-02 6.551752600000000648e-02 1.001602063500000028e+01
6.254732613999999913e+00 0.000000000000000000e+00 0.000000000000000000e+00 1.522608307999999910e+00 8.139396787000000799e+00 0.000000000000000000e+00 -8.290171799999999924e-02 2.830941199999999908e-02 1.004714541499999925e+01
6.445085549999999941e+00 0.000000000000000000e+00 0.000000000000000000e+00 1.584608765999999891e+00 8.408841538000000781e+00 0.000000000000000000e+00 -3.390652499999999986e-02 8.312632999999999828e-03 8.804217394000000141e+00
6.315423878999999907e+00 0.000000000000000000e+00 0.000000000000000000e+00 1.528264371999999982e+00 8.251481995000000680e+00 0.000000000000000000e+00 -7.109655400000000625e-02 -2.160610000000000037e-04 9.935351944000000657e+00
6.122338431000000192e+00 0.000000000000000000e+00 0.000000000000000000e+00 1.352164420000000034e+00 8.034983135999999249e+00 0.000000000000000000e+00 1.362942500000000057e-01 1.320888229999999941e-01 1.044562481300000023e+01
6.523482915999999854e+00 0.000000000000000000e+00 0.000000000000000000e+00 1.580401208000000057e+00 8.551300375000000287e+00 0.000000000000000000e+00 3.708953499999999986e-02 -3.785195400000000016e-02 8.287451215999999121e+00
6.517332447000000251e+00 0.000000000000000000e+00 0.000000000000000000e+00 1.665838452000000025e+00 8.705582071000000255e+00 0.000000000000000000e+00 -3.732476800000000122e-02 8.006156999999999857e-03 8.280657536999999735e+00
6.478776051999999730e+00 0.000000000000000000e+00 0.000000000000000000e+00 1.629478945000000012e+00 8.448355141000000401e+00 0.000000000000000000e+00 3.829122000000000081e-02 6.338406999999999895e-03 8.983241607000000073e+00
6.733823530999999640e+00 0.000000000000000000e+00 0.000000000000000000e+00 1.868634262999999907e+00 8.507286559000000636e+00 0.000000000000000000e+00 1.150445899999999987e-02 -7.634402999999999676e-03 8.340056006999999383e+00
6.131033086000000409e+00 0.000000000000000000e+00 0.000000000000000000e+00 1.536528289000000047e+00 7.969501892000000254e+00 0.000000000000000000e+00 -8.629748099999999533e-02 1.883228400000000122e-02 1.047752038900000038e+01
6.570601647000000156e+00 0.000000000000000000e+00 0.000000000000000000e+00 1.627718505000000038e+00 8.515815592999999240e+00 0.000000000000000000e+00 6.283144000000000055e-03 -1.129375200000000065e-02 8.191818325999999928e+00
6.704350972000000297e+00 0.000000000000000000e+00 0.000000000000000000e+00 1.687964999000000077e+00 8.687897281999999777e+00 0.000000000000000000e+00 7.423749999999999793e-03 -1.010888199999999959e-02 8.382087612999999493e+00
6.528182626999999627e+00 0.000000000000000000e+00 0.000000000000000000e+00 1.565301542999999906e+00 8.447646575000000269e+00 0.000000000000000000e+00 7.147107499999999503e-02 3.812412300000000281e-02 8.510513888000000193e+00
6.316770902000000021e+00 0.000000000000000000e+00 0.000000000000000000e+00 1.656804753000000074e+00 8.147753222000000406e+00 0.000000000000000000e+00 4.249386599999999820e-02 1.128325800000000018e-01 9.797719736999999540e+00
6.455120188000000425e+00 0.000000000000000000e+00 0.000000000000000000e+00 1.664020314000000056e+00 8.361775243000000302e+00 0.000000000000000000e+00 -3.572083000000000202e-02 6.994629199999999325e-02 9.023068976999999435e+00
6.254479475000000122e+00 0.000000000000000000e+00 0.000000000000000000e+00 1.611246004000000065e+00 8.143855134000000717e+00 0.000000000000000000e+00 -7.011963400000000013e-02 9.303270099999999543e-02 9.961904831000000016e+00
6.537344397000000029e+00 0.000000000000000000e+00 0.000000000000000000e+00 1.700889423000000011e+00 8.550481316999999137e+00 0.000000000000000000e+00 -6.436177099999999818e-02 6.722356000000000165e-02 8.791689099999999257e+00
6.453768325999999611e+00 0.000000000000000000e+00 0.000000000000000000e+00 1.531982618000000018e+00 8.366417410000000388e+00 0.000000000000000000e+00 4.441978299999999741e-02 -2.418304500000000024e-02 8.697392787000000069e+00
6.568394188000000078e+00 0.000000000000000000e+00 0.000000000000000000e+00 1.695051909000000023e+00 8.520040266000000528e+00 0.000000000000000000e+00 -4.150476999999999639e-03 1.236864000000000062e-03 8.311535698000000139e+00
6.514379460999999871e+00 0.000000000000000000e+00 0.000000000000000000e+00 1.506174268000000094e+00 8.580672124999999539e+00 0.000000000000000000e+00 1.223154429999999959e-01 6.021637600000000201e-02 8.551443491000000563e+00
6.517185678999999787e+00 0.000000000000000000e+00 0.000000000000000000e+00 1.627404983999999999e+00 8.513959708999999876e+00 0.000000000000000000e+00 3.198535999999999740e-02 1.374079999999999963e-04 8.214045275000000146e+00
6.511649549999999564e+00 0.000000000000000000e+00 0.000000000000000000e+00 1.631578814999999905e+00 8.453752668999999997e+00 0.000000000000000000e+00 1.736192799999999870e-02 -1.544656299999999996e-02 9.136570941000000445e+00
6.597073005000000379e+00 0.000000000000000000e+00 0.000000000000000000e+00 1.732377757999999934e+00 8.514882798000000363e+00 0.000000000000000000e+00 1.857747499999999954e-02 6.871447000000000145e-03 8.148567574999999508e+00
6.709520948999999845e+00 0.000000000000000000e+00 0.000000000000000000e+00 1.686834308999999976e+00 8.707542583000000391e+00 0.000000000000000000e+00 8.060499999999999957e-03 -1.130808099999999934e-02 8.366927048000000866e+00
6.253552566999999840e+00 0.000000000000000000e+00 0.000000000000000000e+00 1.565893830999999903e+00 8.250928296999999745e+00 0.000000000000000000e+00 4.262445999999999596e-03 5.438534320000000255e-01 1.027400880699999952e+01
6.462199904000000217e+00 0.000000000000000000e+00 0.000000000000000000e+00 1.712658519999999962e+00 8.371709490000000642e+00 0.000000000000000000e+00 -6.780510800000000282e-02 2.579580000000000067e-02 8.862035234000000372e+00
6.258807546999999971e+00 0.000000000000000000e+00 0.000000000000000000e+00 1.354826542999999939e+00 8.248459608999999304e+00 0.000000000000000000e+00 6.978901799999999433e-02 -7.598975700000000499e-02 9.703831303999999491e+00
6.660843133000000194e+00 0.000000000000000000e+00 0.000000000000000000e+00 1.641037053000000023e+00 8.642167123000000117e+00 0.000000000000000000e+00 4.468760999999999914e-03 -1.154878099999999928e-02 8.272796462000000517e+00
6.411683640999999767e+00 0.000000000000000000e+00 0.000000000000000000e+00 1.481981172000000013e+00 8.465535081000000517e+00 0.000000000000000000e+00 6.127973899999999974e-02 3.910279900000000058e-02 8.526260020000000495e+00
6.569315046999999907e+00 0.000000000000000000e+00 0.000000000000000000e+00 1.559945461999999949e+00 8.436896796999999282e+00 0.000000000000000000e+00 2.176728000000000170e-03 5.536270999999999727e-03 8.143983083000000178e+00
6.493456476000000421e+00 0.000000000000000000e+00 0.000000000000000000e+00 1.673859897999999902e+00 8.498188014000000123e+00 0.000000000000000000e+00 -7.171912699999999363e-02 8.255325299999999311e-02 8.485978621999999305e+00
6.555240280999999669e+00 0.000000000000000000e+00 0.000000000000000000e+00 1.926400335000000075e+00 8.485826462000000348e+00 0.000000000000000000e+00 -2.476135200000000036e-02 2.144723000000000115e-02 8.240886699000000704e+00
6.601630946000000222e+00 0.000000000000000000e+00 0.000000000000000000e+00 1.545389181000000001e+00 8.466231666000000544e+00 0.000000000000000000e+00 -2.008569600000000011e-02 4.607126599999999961e-02 8.154298352999999722e+00
6.216297344000000002e+00 0.000000000000000000e+00 0.000000000000000000e+00 1.560863461000000063e+00 8.075896287999999146e+00 0.000000000000000000e+00 -1.326448510000000081e-01 1.148365140000000006e-01 1.039920591799999983e+01
