1.732050000000000090e+00 8.555199999999999472e-01 3.633319999999999883e+00 1.584540000000000060e+00 1.077660000000000062e+00 8.872870000000000701e+00 6.115759999999999863e+00 3.578920000000000101e+00 3.561500000000000110e+00 6.060649999999999871e+00 3.537679999999999936e+00 8.981540000000000745e+00 4.346659999999999968e+00 5.968300000000000161e+00 4.086129999999999818e+00 4.529609999999999914e+00 6.223860000000000170e+00 9.502919999999999590e+00 4.727479999999999905e+00 1.068359999999999976e+00 3.270960000000000090e+00 4.526489999999999903e+00 1.070100000000000051e+00 8.917609999999999815e+00 3.015680000000000138e+00 3.530380000000000074e+00 3.628280000000000172e+00 3.010180000000000078e+00 3.581290000000000084e+00 8.871219999999999217e+00 1.252820000000000045e+00 6.265049999999999564e+00 4.443579999999999863e+00 1.503360000000000030e+00 6.372289999999999566e+00 9.585449999999999804e+00 6.111180000000000057e+00 1.714310000000000000e+00 8.619099999999999540e-01 6.126629999999999576e+00 1.748820000000000041e+00 6.234930000000000305e+00 4.578149999999999942e+00 4.268250000000000099e+00 8.573300000000000365e-01 4.591739999999999711e+00 4.293169999999999931e+00 6.305810000000000137e+00 3.012529999999999930e+00 6.901049999999999685e+00 1.475389999999999979e+00 3.110590000000000188e+00 6.982910000000000394e+00 6.905630000000000379e+00 3.028669999999999973e+00 1.758459999999999912e+00 9.309600000000000097e-01 2.981710000000000083e+00 1.949449999999999905e+00 6.339100000000000179e+00 1.574410000000000087e+00 4.249869999999999592e+00 8.818099999999999827e-01 1.581299999999999928e+00 4.456019999999999648e+00 6.395459999999999923e+00 6.077869999999999884e+00 6.938609999999999722e+00 1.473670000000000035e+00 6.084819999999999673e+00 6.897020000000000373e+00 7.066139999999999866e+00 5.310489999999999711e+00 7.908640000000000114e+00 5.149110000000000298e+00 1.510159999999999947e+00 7.537300000000000111e-01 1.646479999999999944e+00 1.565760000000000041e+00 8.917500000000000426e-01 6.903529999999999944e+00 6.164209999999999745e+00 3.424090000000000078e+00 1.637219999999999898e+00 6.078560000000000407e+00 3.494769999999999932e+00 7.056910000000000238e+00 4.627010000000000289e+00 6.077469999999999928e+00 8.914999999999999591e-01 4.675550000000000317e+00 6.451089999999999769e+00 5.955199999999999605e+00 4.546389999999999709e+00 8.733899999999999997e-01 1.460909999999999931e+00 4.510259999999999714e+00 8.521999999999999575e-01 6.731959999999999944e+00 3.058330000000000215e+00 3.543849999999999945e+00 1.710029999999999939e+00 3.135320000000000107e+00 3.641119999999999912e+00 7.020209999999999617e+00 1.446890000000000009e+00 6.108990000000000364e+00 8.710099999999999509e-01 1.517889999999999961e+00 6.270220000000000127e+00 6.362429999999999808e+00 6.210020000000000095e+00 1.722900000000000098e+00 4.064440000000000275e+00 6.081000000000000405e+00 1.672560000000000047e+00 9.471740000000000492e+00 4.625860000000000305e+00 4.303880000000000372e+00 4.455009999999999692e+00 4.462659999999999627e+00 4.341120000000000090e+00 9.382250000000000867e+00 2.906590000000000007e+00 6.936289999999999623e+00 3.529490000000000016e+00 3.021049999999999791e+00 6.974660000000000082e+00 8.966369999999999507e+00 3.167499999999999982e+00 1.667210000000000081e+00 4.442210000000000214e+00 3.000750000000000028e+00 1.832459999999999978e+00 9.660030000000000783e+00 1.521819999999999951e+00 4.341730000000000089e+00 4.407980000000000231e+00 1.478790000000000049e+00 4.406279999999999752e+00 9.494220000000000326e+00 5.975699999999999790e+00 7.074830000000000396e+00 3.650689999999999991e+00 6.066609999999999836e+00 7.127830000000000332e+00 8.929420000000000357e+00
1.581809999999999938e+00 8.789400000000000546e-01 3.457250000000000156e+00 1.465289999999999981e+00 9.716500000000000137e-01 8.784259999999999735e+00 6.206279999999999575e+00 3.451849999999999863e+00 3.504680000000000017e+00 6.124390000000000001e+00 3.622599999999999820e+00 8.689920000000000755e+00 4.314930000000000376e+00 5.993529999999999802e+00 4.108259999999999579e+00 4.561280000000000001e+00 6.319169999999999732e+00 9.457090000000000884e+00 4.772859999999999658e+00 1.040129999999999999e+00 3.204149999999999832e+00 4.516180000000000305e+00 9.841400000000000148e-01 8.768660000000000565e+00 3.024799999999999933e+00 3.465850000000000097e+00 3.586139999999999883e+00 2.968760000000000066e+00 3.544179999999999886e+00 8.791629999999999612e+00 1.505840000000000067e+00 6.320179999999999687e+00 4.228640000000000398e+00 1.509100000000000108e+00 6.213309999999999889e+00 9.405519999999999214e+00 6.206319999999999837e+00 1.627520000000000078e+00 7.832999999999999963e-01 6.116480000000000139e+00 1.822929999999999939e+00 6.039629999999999832e+00 4.650830000000000020e+00 4.215449999999999697e+00 9.231500000000000261e-01 4.686580000000000190e+00 4.415320000000000356e+00 6.158660000000000245e+00 2.991010000000000169e+00 6.885390000000000121e+00 1.598829999999999973e+00 3.121109999999999829e+00 7.090679999999999872e+00 6.921420000000000350e+00 3.019050000000000011e+00 1.681170000000000053e+00 9.481699999999999573e-01 3.021259999999999835e+00 1.931789999999999896e+00 6.349929999999999630e+00 1.598279999999999923e+00 4.337509999999999977e+00 1.005959999999999965e+00 1.513630000000000031e+00 4.373120000000000118e+00 6.172310000000000407e+00 6.027429999999999843e+00 7.002860000000000085e+00 1.520729999999999915e+00 6.281670000000000087e+00 6.936580000000000190e+00 7.149180000000000312e+00 3.808769999999999989e+00 4.324000000000000066e-02 5.049629999999999619e+00 1.571909999999999918e+00 8.535800000000000054e-01 1.515849999999999920e+00 1.514690000000000092e+00 1.081029999999999935e+00 6.874349999999999739e+00 6.106709999999999638e+00 3.392739999999999867e+00 1.498660000000000103e+00 6.159889999999999866e+00 3.571309999999999985e+00 6.775859999999999772e+00 4.489749999999999908e+00 6.141250000000000320e+00 8.324700000000000433e-01 4.659699999999999953e+00 6.329069999999999752e+00 6.061619999999999564e+00 4.679179999999999673e+00 9.107199999999999740e-01 1.475640000000000063e+00 4.450009999999999799e+00 7.712900000000000311e-01 6.496809999999999974e+00 3.122799999999999798e+00 3.425429999999999975e+00 1.652160000000000073e+00 3.056839999999999780e+00 3.612750000000000128e+00 6.825289999999999857e+00 1.444690000000000030e+00 6.124229999999999841e+00 9.122900000000000453e-01 1.578230000000000022e+00 6.305519999999999570e+00 6.253989999999999938e+00 6.215799999999999770e+00 1.651340000000000030e+00 4.128659999999999997e+00 6.056820000000000093e+00 1.893499999999999961e+00 9.360960000000000392e+00 4.587259999999999671e+00 4.103040000000000020e+00 4.204279999999999795e+00 4.586660000000000181e+00 4.453570000000000029e+00 9.273089999999999833e+00 2.905780000000000030e+00 6.855410000000000004e+00 3.395249999999999879e+00 3.034870000000000179e+00 7.237359999999999793e+00 8.739560000000000883e+00 3.265330000000000066e+00 1.698949999999999960e+00 4.206830000000000069e+00 3.068090000000000206e+00 1.788079999999999892e+00 9.461949999999999861e+00 1.527249999999999996e+00 4.472800000000000331e+00 4.295819999999999972e+00 1.520159999999999956e+00 4.488749999999999574e+00 9.425480000000000302e+00 5.937289999999999957e+00 7.145290000000000141e+00 3.494130000000000180e+00 6.076270000000000060e+00 7.131219999999999892e+00 8.837210000000000676e+00
1.682500000000000107e+00 1.019689999999999985e+00 3.179629999999999956e+00 1.688809999999999922e+00 9.142900000000000471e-01 7.130020000000000024e+00 6.495510000000000339e+00 3.594889999999999919e+00 2.840160000000000018e+00 6.616290000000000227e+00 3.818080000000000140e+00 7.331279999999999575e+00 6.431160000000000210e+00 5.558620000000000339e+00 4.206649999999999778e+00 5.135519999999999641e+00 6.700339999999999741e+00 7.378820000000000157e+00 4.868400000000000283e+00 9.823600000000000110e-01 3.074609999999999843e+00 4.988839999999999719e+00 1.087229999999999919e+00 7.260159999999999947e+00 3.359399999999999942e+00 3.793239999999999945e+00 3.151790000000000092e+00 3.267879999999999896e+00 3.773940000000000072e+00 7.445540000000000269e+00 1.683929999999999927e+00 6.677340000000000053e+00 2.973689999999999944e+00 1.658600000000000074e+00 6.660599999999999632e+00 7.333689999999999820e+00 6.609189999999999898e+00 1.883399999999999963e+00 8.529499999999999860e-01 6.536080000000000112e+00 2.096760000000000179e+00 5.217399999999999594e+00 4.921429999999999971e+00 4.668479999999999741e+00 1.027120000000000033e+00 4.812210000000000321e+00 4.692879999999999718e+00 5.413140000000000285e+00 3.331980000000000164e+00 7.544190000000000396e+00 9.757900000000000462e-01 3.473790000000000155e+00 7.598040000000000127e+00 5.212790000000000035e+00 3.229849999999999888e+00 1.805809999999999915e+00 1.087809999999999944e+00 3.324939999999999785e+00 1.764340000000000019e+00 5.245800000000000018e+00 1.682020000000000071e+00 4.665510000000000268e+00 1.154309999999999947e+00 1.924069999999999947e+00 4.709030000000000271e+00 5.348239999999999661e+00 6.656769999999999854e+00 7.617829999999999657e+00 9.788900000000000379e-01 6.744869999999999699e+00 7.788120000000000154e+00 5.177039999999999864e+00 4.674210000000000420e+00 6.886029999999999873e+00 3.124400000000000066e+00 1.648460000000000036e+00 8.861200000000000188e-01 9.338199999999999834e-01 1.545309999999999961e+00 9.159800000000000164e-01 5.245680000000000121e+00 6.636429999999999829e+00 3.829839999999999911e+00 1.196609999999999951e+00 6.473320000000000185e+00 3.807110000000000216e+00 5.217620000000000147e+00 4.930589999999999584e+00 6.645959999999999646e+00 1.045290000000000052e+00 5.348930000000000184e+00 6.598679999999999879e+00 4.759529999999999816e+00 5.041769999999999641e+00 9.994499999999999496e-01 1.115650000000000031e+00 5.034760000000000346e+00 1.136149999999999993e+00 5.459909999999999819e+00 3.311850000000000183e+00 3.743090000000000028e+00 1.119890000000000052e+00 3.309699999999999864e+00 3.660670000000000091e+00 5.561960000000000015e+00 1.697489999999999943e+00 6.492549999999999599e+00 1.036059999999999981e+00 1.663410000000000055e+00 6.666070000000000384e+00 5.244419999999999860e+00 6.550970000000000404e+00 1.843609999999999971e+00 2.910400000000000098e+00 6.712699999999999889e+00 1.979619999999999935e+00 7.465090000000000003e+00 5.031579999999999941e+00 4.565820000000000434e+00 3.298090000000000188e+00 5.040610000000000035e+00 4.809770000000000323e+00 7.265460000000000029e+00 3.205690000000000150e+00 7.543249999999999567e+00 3.261289999999999800e+00 3.428350000000000009e+00 7.533809999999999896e+00 7.262900000000000134e+00 3.265719999999999956e+00 1.903629999999999933e+00 3.214809999999999945e+00 3.297379999999999978e+00 1.868840000000000057e+00 7.445669999999999789e+00 1.687699999999999978e+00 4.657670000000000421e+00 3.256130000000000191e+00 1.629629999999999912e+00 4.770699999999999719e+00 7.348329999999999806e+00 6.527059999999999640e+00 7.655249999999999666e+00 3.005590000000000206e+00 6.649779999999999802e+00 7.637410000000000032e+00 7.457670000000000243e+00
1.598249999999999948e+00 8.060500000000000442e-01 3.175479999999999858e+00 1.695880000000000054e+00 9.042799999999999727e-01 7.384409999999999918e+00 6.680290000000000283e+00 3.786529999999999951e+00 3.142510000000000137e+00 6.550989999999999647e+00 3.796400000000000219e+00 7.448409999999999975e+00 6.531930000000000014e+00 5.973460000000000214e+00 4.430439999999999934e+00 5.028340000000000032e+00 6.611729999999999663e+00 7.494939999999999714e+00 4.905429999999999957e+00 1.089990000000000014e+00 3.221270000000000078e+00 4.981390000000000207e+00 1.012440000000000007e+00 7.487350000000000172e+00 3.185880000000000045e+00 3.856230000000000047e+00 3.191190000000000193e+00 3.178479999999999972e+00 3.766150000000000109e+00 7.571710000000000385e+00 1.616200000000000081e+00 6.745090000000000252e+00 2.963960000000000150e+00 1.536270000000000024e+00 6.792939999999999756e+00 7.404700000000000060e+00 6.686270000000000380e+00 1.934479999999999977e+00 1.069639999999999924e+00 6.737470000000000070e+00 2.002880000000000216e+00 5.282860000000000333e+00 4.894800000000000040e+00 4.697540000000000049e+00 1.162490000000000023e+00 4.811130000000000351e+00 4.644359999999999822e+00 5.405459999999999710e+00 3.266729999999999912e+00 7.694239999999999746e+00 8.561600000000000321e-01 3.219009999999999927e+00 7.535700000000000287e+00 5.476549999999999585e+00 3.240320000000000089e+00 1.886100000000000110e+00 1.051460000000000061e+00 3.211580000000000101e+00 1.880049999999999999e+00 5.301499999999999879e+00 1.598100000000000076e+00 4.791879999999999917e+00 8.990799999999999903e-01 1.715179999999999927e+00 4.665160000000000196e+00 5.519689999999999763e+00 6.612519999999999953e+00 7.788109999999999644e+00 9.547099999999999476e-01 6.574320000000000164e+00 7.918660000000000032e+00 5.545069999999999943e+00 4.824989999999999668e+00 6.772490000000000343e+00 2.952280000000000015e+00 1.650579999999999936e+00 8.799599999999999644e-01 1.071290000000000076e+00 1.682760000000000034e+00 8.624199999999999644e-01 5.325899999999999856e+00 6.453940000000000232e+00 3.834379999999999900e+00 1.060910000000000020e+00 6.646939999999999849e+00 4.044789999999999885e+00 5.271749999999999936e+00 4.952840000000000131e+00 6.702440000000000175e+00 1.084510000000000085e+00 5.007390000000000008e+00 6.544730000000000381e+00 5.519929999999999559e+00 5.000160000000000160e+00 1.017330000000000068e+00 1.096389999999999976e+00 4.992709999999999759e+00 1.135580000000000034e+00 5.186550000000000438e+00 3.202040000000000219e+00 3.819189999999999863e+00 1.065460000000000074e+00 3.212549999999999795e+00 3.778659999999999908e+00 5.181199999999999584e+00 1.563530000000000086e+00 6.823339999999999961e+00 8.052599999999999758e-01 1.372889999999999944e+00 6.652940000000000076e+00 5.519359999999999822e+00 6.673820000000000086e+00 1.920560000000000045e+00 3.119450000000000056e+00 6.725480000000000125e+00 1.920479999999999965e+00 7.317059999999999675e+00 5.104119999999999990e+00 4.947820000000000107e+00 3.326430000000000220e+00 4.896869999999999834e+00 4.559849999999999959e+00 7.352219999999999978e+00 3.164620000000000211e+00 7.623190000000000133e+00 3.245470000000000077e+00 3.407319999999999904e+00 7.675600000000000200e+00 7.446990000000000443e+00 3.223819999999999908e+00 1.838619999999999921e+00 3.108909999999999840e+00 3.303819999999999979e+00 1.967929999999999957e+00 7.428320000000000256e+00 1.552400000000000002e+00 4.920279999999999987e+00 3.065850000000000186e+00 1.571010000000000018e+00 4.848440000000000083e+00 7.494519999999999627e+00 6.609630000000000116e+00 7.616810000000000080e+00 3.400370000000000115e+00 6.634540000000000326e+00 7.821760000000000268e+00 7.421739999999999782e+00
1.455300000000000038e+00 8.164200000000000346e-01 3.531540000000000123e+00 1.403869999999999951e+00 1.174199999999999910e+00 8.586550000000000793e+00 6.008740000000000414e+00 3.493349999999999955e+00 3.539330000000000087e+00 5.806300000000000239e+00 3.407300000000000217e+00 8.467919999999999447e+00 4.594210000000000349e+00 6.205409999999999648e+00 3.455400000000000027e+00 4.688869999999999649e+00 6.389160000000000394e+00 8.484040000000000248e+00 4.692689999999999806e+00 8.182700000000000529e-01 3.268419999999999881e+00 4.581039999999999779e+00 8.371300000000000407e-01 8.503479999999999706e+00 2.879830000000000112e+00 3.710770000000000124e+00 3.304489999999999927e+00 3.005389999999999784e+00 3.590700000000000003e+00 8.469939999999999358e+00 1.737409999999999899e+00 6.235579999999999679e+00 4.658220000000000027e+00 1.703480000000000105e+00 6.154910000000000103e+00 8.723959999999999937e+00 6.324869999999999770e+00 1.868740000000000068e+00 1.003279999999999950e+00 6.033059999999999867e+00 1.730089999999999906e+00 5.926879999999999704e+00 4.595760000000000289e+00 4.556189999999999962e+00 9.804000000000000492e-01 4.433810000000000251e+00 4.491369999999999862e+00 6.005029999999999646e+00 3.169059999999999988e+00 7.198669999999999902e+00 7.419999999999999929e-01 3.255409999999999915e+00 7.331719999999999793e+00 6.166319999999999801e+00 3.146590000000000220e+00 1.713130000000000042e+00 8.142500000000000293e-01 2.979530000000000012e+00 1.830270000000000064e+00 5.791170000000000151e+00 1.573409999999999975e+00 4.117510000000000225e+00 6.674799999999999622e-01 1.354670000000000041e+00 4.226679999999999993e+00 6.217380000000000351e+00 6.210130000000000372e+00 7.294509999999999827e+00 6.721300000000000052e-01 6.259170000000000122e+00 7.166900000000000048e+00 6.346870000000000012e+00 6.862619999999999720e+00 5.663170000000000037e+00 2.389460000000000139e+00 1.564049999999999940e+00 8.816899999999999737e-01 1.642320000000000002e+00 1.445049999999999946e+00 1.050459999999999949e+00 6.664010000000000211e+00 6.194609999999999950e+00 3.750449999999999839e+00 1.557369999999999921e+00 5.878079999999999750e+00 3.545450000000000212e+00 6.513049999999999784e+00 4.875160000000000160e+00 6.366780000000000328e+00 1.585429999999999895e+00 4.728329999999999700e+00 6.240569999999999951e+00 6.752180000000000071e+00 4.807750000000000412e+00 8.852900000000000214e-01 1.495600000000000041e+00 4.472129999999999939e+00 8.303599999999999870e-01 6.547329999999999650e+00 3.130409999999999915e+00 3.561939999999999884e+00 1.416709999999999914e+00 2.947799999999999976e+00 3.578549999999999898e+00 6.497810000000000308e+00 1.561490000000000045e+00 6.105680000000000440e+00 8.122899999999999565e-01 1.707109999999999905e+00 6.219260000000000232e+00 6.390159999999999840e+00 6.099120000000000097e+00 1.791309999999999958e+00 4.114020000000000010e+00 6.078870000000000218e+00 1.740699999999999914e+00 9.226720000000000255e+00 4.642900000000000027e+00 4.440229999999999677e+00 3.983979999999999855e+00 4.424019999999999619e+00 4.509220000000000006e+00 9.218579999999999330e+00 3.193709999999999827e+00 7.094210000000000349e+00 4.240920000000000023e+00 3.068770000000000220e+00 7.446609999999999729e+00 9.066549999999999443e+00 3.047010000000000218e+00 1.857480000000000020e+00 3.818360000000000198e+00 3.184969999999999857e+00 1.962939999999999907e+00 9.025169999999999249e+00 1.310230000000000006e+00 4.528069999999999595e+00 4.003730000000000011e+00 1.250660000000000105e+00 4.212329999999999686e+00 8.969139999999999446e+00 6.268679999999999808e+00 7.166430000000000078e+00 4.174349999999999561e+00 6.170960000000000001e+00 7.167830000000000368e+00 9.049450000000000216e+00
1.468550000000000022e+00 1.057399999999999896e+00 3.289769999999999861e+00 1.662870000000000070e+00 7.925400000000000222e-01 9.158179999999999765e+00 6.231099999999999639e+00 3.650939999999999852e+00 4.010690000000000310e+00 6.308089999999999975e+00 3.555280000000000218e+00 9.052509999999999835e+00 2.681869999999999976e+00 -5.740000000000000310e-03 4.937420000000000364e+00 4.730540000000000411e+00 6.306659999999999933e+00 9.076930000000000831e+00 4.818170000000000286e+00 9.622300000000000297e-01 3.961530000000000218e+00 4.899980000000000224e+00 9.734699999999999465e-01 8.878679999999999239e+00 3.212499999999999911e+00 3.762100000000000222e+00 4.151019999999999932e+00 3.306779999999999831e+00 3.500960000000000072e+00 8.971470000000000056e+00 1.570899999999999963e+00 6.395970000000000155e+00 3.884770000000000056e+00 1.508899999999999908e+00 6.334279999999999688e+00 8.973710000000000520e+00 6.327759999999999607e+00 1.992580000000000018e+00 1.544650000000000079e+00 6.334979999999999833e+00 1.786629999999999940e+00 6.507179999999999964e+00 4.711689999999999934e+00 4.573889999999999567e+00 1.518310000000000048e+00 4.822549999999999670e+00 4.685780000000000278e+00 6.425410000000000288e+00 3.250220000000000109e+00 7.278220000000000134e+00 1.531069999999999931e+00 3.001660000000000217e+00 7.129540000000000433e+00 6.826380000000000337e+00 3.170869999999999855e+00 1.873350000000000071e+00 1.521870000000000056e+00 3.310210000000000097e+00 1.876949999999999896e+00 6.756709999999999994e+00 1.603089999999999904e+00 4.574320000000000164e+00 1.583150000000000057e+00 1.366219999999999990e+00 4.489390000000000214e+00 6.284889999999999866e+00 6.409519999999999662e+00 7.416310000000000180e+00 1.554939999999999989e+00 6.494989999999999597e+00 7.512660000000000338e+00 6.448859999999999815e+00 5.068889999999999674e+00 6.355699999999999683e+00 3.740650000000000031e+00 1.628889999999999949e+00 9.529499999999999638e-01 1.353120000000000100e+00 1.702299999999999924e+00 6.813200000000000367e-01 6.224109999999999587e+00 6.300679999999999836e+00 3.632820000000000160e+00 1.000599999999999934e+00 6.129529999999999923e+00 3.616260000000000030e+00 5.951089999999999769e+00 4.685439999999999827e+00 6.244130000000000180e+00 1.073579999999999979e+00 4.557389999999999830e+00 6.588280000000000136e+00 5.664579999999999949e+00 4.812479999999999869e+00 9.896000000000000352e-01 9.744699999999999473e-01 4.653929999999999900e+00 8.516599999999999726e-01 5.848910000000000053e+00 3.071950000000000180e+00 3.580290000000000195e+00 9.137100000000000222e-01 3.151349999999999874e+00 3.633879999999999999e+00 5.996879999999999988e+00 1.542370000000000019e+00 6.366530000000000022e+00 1.042140000000000066e+00 1.382800000000000029e+00 6.321579999999999977e+00 5.878669999999999618e+00 6.319600000000000328e+00 1.927869999999999973e+00 3.407129999999999992e+00 6.522350000000000314e+00 1.713649999999999896e+00 8.405329999999999302e+00 4.633469999999999978e+00 4.581109999999999793e+00 3.485970000000000013e+00 4.849350000000000271e+00 4.450730000000000075e+00 8.389290000000000802e+00 3.363579999999999792e+00 7.499229999999999841e+00 3.379259999999999931e+00 3.112909999999999844e+00 7.280219999999999914e+00 8.716889999999999361e+00 3.164950000000000152e+00 1.768000000000000016e+00 3.699660000000000171e+00 3.177340000000000053e+00 1.614039999999999919e+00 8.682959999999999567e+00 1.665180000000000105e+00 4.602730000000000210e+00 3.445739999999999803e+00 1.475749999999999895e+00 4.599319999999999631e+00 8.375550000000000495e+00 6.303180000000000227e+00 7.479470000000000063e+00 3.353979999999999961e+00 6.336780000000000079e+00 7.220349999999999824e+00 8.269109999999999516e+00
1.525470000000000104e+00 1.046000000000000041e+00 3.424949999999999939e+00 1.510629999999999917e+00 9.805500000000000327e-01 8.520670000000000854e+00 6.307419999999999582e+00 3.616150000000000198e+00 3.542839999999999989e+00 6.276169999999999582e+00 3.749099999999999877e+00 8.397000000000000242e+00 4.724529999999999674e+00 6.052069999999999617e+00 3.216899999999999871e+00 4.681919999999999860e+00 6.545350000000000001e+00 9.177189999999999515e+00 4.806869999999999976e+00 1.032799999999999940e+00 3.285979999999999901e+00 4.689160000000000217e+00 1.055960000000000010e+00 8.401329999999999742e+00 3.174710000000000143e+00 3.371049999999999880e+00 3.442699999999999871e+00 3.182770000000000099e+00 3.884799999999999809e+00 8.436930000000000263e+00 1.676719999999999988e+00 6.258989999999999831e+00 3.925050000000000150e+00 1.679410000000000069e+00 6.428829999999999600e+00 9.144289999999999807e+00 6.281460000000000043e+00 1.799830000000000041e+00 7.769000000000000350e-01 6.170010000000000439e+00 1.901639999999999997e+00 5.907630000000000159e+00 4.708929999999999616e+00 4.310430000000000206e+00 9.599699999999999900e-01 4.705560000000000187e+00 4.733999999999999986e+00 5.870440000000000325e+00 3.061920000000000197e+00 7.204769999999999897e+00 1.427300000000000013e+00 3.183860000000000134e+00 7.076719999999999899e+00 6.575059999999999683e+00 3.219390000000000196e+00 1.797299999999999898e+00 7.362600000000000255e-01 3.199359999999999982e+00 1.966630000000000100e+00 6.138659999999999783e+00 1.523390000000000022e+00 4.387970000000000148e+00 1.209470000000000045e+00 1.606000000000000094e+00 4.495490000000000208e+00 5.867589999999999861e+00 6.370659999999999989e+00 7.187030000000000030e+00 1.432609999999999939e+00 6.422699999999999854e+00 6.966940000000000133e+00 6.704419999999999824e+00 5.322720000000000340e+00 7.973390000000000200e+00 4.901589999999999669e+00 1.530659999999999910e+00 9.385099999999999554e-01 1.415859999999999896e+00 1.532990000000000075e+00 9.231200000000000516e-01 6.428910000000000124e+00 6.284589999999999677e+00 3.606269999999999865e+00 1.695480000000000098e+00 6.312899999999999956e+00 3.729950000000000099e+00 6.541409999999999947e+00 4.759000000000000341e+00 6.321570000000000356e+00 1.343760000000000066e+00 4.780280000000000307e+00 6.502979999999999983e+00 5.894639999999999880e+00 4.720810000000000173e+00 9.884800000000000253e-01 1.446520000000000028e+00 4.578330000000000233e+00 8.203899999999999526e-01 6.485730000000000217e+00 3.176320000000000032e+00 3.498819999999999819e+00 1.517120000000000024e+00 3.152029999999999887e+00 3.816780000000000062e+00 6.474579999999999558e+00 1.622640000000000082e+00 6.307820000000000427e+00 1.083930000000000060e+00 1.534529999999999950e+00 6.312909999999999577e+00 5.784519999999999662e+00 6.193990000000000329e+00 1.837579999999999991e+00 4.037429999999999630e+00 6.359009999999999607e+00 1.907119999999999926e+00 8.980000000000000426e+00 4.604549999999999699e+00 4.403850000000000264e+00 3.910579999999999945e+00 4.807019999999999627e+00 4.689119999999999955e+00 9.213430000000000675e+00 3.196829999999999838e+00 7.304020000000000401e+00 3.335059999999999913e+00 3.143139999999999823e+00 7.251389999999999780e+00 8.494049999999999656e+00 3.275370000000000115e+00 1.659399999999999986e+00 4.322549999999999670e+00 3.189229999999999787e+00 1.968259999999999899e+00 8.918670000000000542e+00 1.671939999999999982e+00 4.447829999999999728e+00 3.987789999999999946e+00 1.605019999999999891e+00 4.691360000000000419e+00 9.097739999999999938e+00 6.328199999999999825e+00 7.309009999999999785e+00 3.402789999999999981e+00 6.301309999999999967e+00 7.245049999999999990e+00 8.532339999999999591e+00
1.673829999999999929e+00 9.564000000000000279e-01 3.130640000000000089e+00 1.614009999999999945e+00 1.071660000000000057e+00 7.249620000000000175e+00 6.691550000000000331e+00 3.744330000000000158e+00 3.095299999999999940e+00 6.683460000000000178e+00 3.823700000000000099e+00 7.347470000000000390e+00 6.365639999999999965e+00 5.842800000000000438e+00 3.241750000000000131e+00 4.994069999999999787e+00 6.766610000000000014e+00 7.331529999999999880e+00 5.036999999999999922e+00 8.995800000000000463e-01 3.164260000000000073e+00 4.948719999999999786e+00 8.912299999999999667e-01 7.286760000000000126e+00 3.382080000000000197e+00 3.810690000000000133e+00 3.163829999999999920e+00 3.327630000000000088e+00 3.896689999999999987e+00 7.254059999999999953e+00 1.826710000000000056e+00 6.668059999999999654e+00 3.126310000000000144e+00 1.679999999999999938e+00 6.664939999999999642e+00 7.363640000000000185e+00 6.560959999999999681e+00 1.872120000000000006e+00 9.923899999999999944e-01 6.662860000000000227e+00 1.935440000000000049e+00 5.126979999999999649e+00 5.008300000000000196e+00 4.786780000000000257e+00 1.056000000000000050e+00 5.011210000000000164e+00 4.756569999999999965e+00 5.318060000000000009e+00 3.417170000000000041e+00 7.715489999999999959e+00 1.014159999999999950e+00 3.461599999999999788e+00 7.717889999999999695e+00 5.264269999999999783e+00 3.255119999999999791e+00 1.912910000000000110e+00 1.051199999999999912e+00 3.392510000000000137e+00 1.929720000000000102e+00 5.231620000000000381e+00 1.752569999999999961e+00 4.771779999999999688e+00 1.078079999999999927e+00 1.732709999999999972e+00 4.814560000000000173e+00 5.240680000000000227e+00 6.703899999999999970e+00 7.596739999999999604e+00 9.489199999999999857e-01 6.755639999999999645e+00 7.586500000000000021e+00 5.321410000000000196e+00 4.625250000000000306e+00 7.090270000000000294e+00 3.168600000000000083e+00 1.650409999999999933e+00 9.697400000000000464e-01 9.420800000000000285e-01 1.667759999999999909e+00 9.478299999999999503e-01 5.216940000000000133e+00 6.585899999999999643e+00 3.812549999999999883e+00 1.151410000000000045e+00 6.639509999999999579e+00 3.810389999999999944e+00 5.127449999999999619e+00 4.987949999999999662e+00 6.749670000000000059e+00 8.836600000000000010e-01 5.034430000000000405e+00 6.709039999999999893e+00 5.482719999999999594e+00 4.975979999999999848e+00 9.384700000000000264e-01 9.720400000000000151e-01 4.969540000000000290e+00 7.975299999999999612e-01 5.174529999999999852e+00 3.393829999999999902e+00 3.890280000000000182e+00 9.572500000000000453e-01 3.355119999999999880e+00 3.830869999999999997e+00 5.233189999999999564e+00 1.659710000000000019e+00 6.676569999999999894e+00 1.075479999999999992e+00 1.718399999999999928e+00 6.647400000000000198e+00 5.153450000000000308e+00 6.632889999999999731e+00 1.827939999999999898e+00 3.166619999999999990e+00 6.625370000000000203e+00 1.968040000000000012e+00 7.237350000000000172e+00 5.034880000000000244e+00 4.822610000000000063e+00 3.092540000000000067e+00 5.016989999999999839e+00 4.728650000000000020e+00 7.303350000000000009e+00 3.443109999999999893e+00 7.737260000000000026e+00 3.103499999999999925e+00 3.290379999999999860e+00 7.683569999999999567e+00 7.262310000000000265e+00 3.343830000000000080e+00 1.998830000000000107e+00 3.046739999999999782e+00 3.350699999999999790e+00 1.877250000000000085e+00 7.206140000000000434e+00 1.698229999999999906e+00 4.730760000000000076e+00 3.145640000000000214e+00 1.698380000000000001e+00 4.726729999999999876e+00 7.332180000000000142e+00 6.717530000000000001e+00 7.658500000000000085e+00 3.053549999999999986e+00 6.760500000000000398e+00 7.663299999999999557e+00 7.320439999999999614e+00