-3.883593499599999745e+02
-3.882859995599999934e+02
-3.817436828300000116e+02
-3.865229353899999865e+02
-3.866983992400000147e+02
-3.854165712199999803e+02
-3.887120885400000248e+02
-3.837282785699999863e+02
-3.813118477400000188e+02
-3.876511242999999922e+02
-3.823669508500000234e+02
-3.815711836599999742e+02
-3.886781654700000104e+02
-3.860059997299999850e+02
-3.834304385199999956e+02
-3.873186747799999807e+02
-3.839217948500000261e+02
-3.846376394499999947e+02
-3.851805609499999719e+02
-3.857709350700000073e+02
-3.833740123499999868e+02
-3.885481576099999756e+02
-3.880031833400000210e+02
-3.854334960499999738e+02
-3.861381577099999731e+02
-3.832828323100000034e+02
-3.894468611400000100e+02
-3.836697172500000192e+02
-3.847343545400000266e+02
-3.857554162199999723e+02
-3.817258898300000283e+02
-3.872576304099999902e+02
-3.840317066100000147e+02
-3.851449112700000228e+02
-3.863167821499999945e+02
-3.854111672700000213e+02
-3.891940854200000217e+02
-3.841548680000000218e+02
-3.866708894199999804e+02
-3.873985078900000190e+02
-3.780771545999999717e+02
-3.806250518800000009e+02
-3.840020260200000166e+02
-3.854777764400000137e+02
-3.843268787200000247e+02
-3.885538596700000085e+02
-3.823592004299999871e+02
-3.884491626600000131e+02
-3.870027716999999825e+02
-3.845558381700000155e+02
