1.413030000000000008e+00 9.501300000000000301e-01 4.352310000000000123e+00 1.591450000000000031e+00 9.089099999999999957e-01 9.324099999999999611e+00 -5.358000000000000262e-02 3.562790000000000123e+00 4.542500000000000426e+00 -3.141999999999999654e-02 3.551120000000000054e+00 9.330640000000000711e+00 4.453739999999999810e+00 8.854300000000000503e-01 4.332130000000000258e+00 3.005590000000000206e+00 3.512719999999999843e+00 4.423739999999999561e+00 3.047330000000000094e+00 3.659940000000000193e+00 9.509930000000000661e+00 5.315999999999999892e-02 1.781900000000000039e+00 1.820519999999999916e+00 3.194000000000000311e-02 1.765370000000000106e+00 6.925340000000000273e+00 -1.418679999999999941e+00 4.492429999999999701e+00 1.849560000000000093e+00 -1.464550000000000018e+00 4.521469999999999878e+00 6.760060000000000180e+00 3.021150000000000002e+00 1.908090000000000064e+00 1.797889999999999988e+00 3.104600000000000026e+00 1.873189999999999911e+00 7.026449999999999640e+00 1.517419999999999991e+00 4.451579999999999870e+00 1.763949999999999907e+00 1.468569999999999931e+00 4.417639999999999567e+00 6.884159999999999613e+00 1.426239999999999952e+00 8.834600000000000231e-01 2.556459999999999955e+00 1.606419999999999959e+00 9.371699999999999475e-01 7.472389999999999866e+00 -9.232999999999999541e-02 3.570809999999999818e+00 2.499600000000000044e+00 9.100000000000000450e-03 3.499270000000000103e+00 7.381660000000000110e+00 4.403520000000000323e+00 8.743300000000000516e-01 2.512550000000000061e+00 4.619839999999999947e+00 9.732300000000000395e-01 7.719159999999999577e+00 2.967130000000000045e+00 3.574689999999999923e+00 2.490740000000000176e+00 3.099559999999999871e+00 3.652239999999999931e+00 7.542839999999999989e+00 -1.419999999999999873e-01 1.758089999999999931e+00 5.040759999999999685e+00 3.894999999999999851e-02 1.758480000000000043e+00 9.921799999999999287e+00 -1.504350000000000076e+00 4.527730000000000032e+00 4.894829999999999792e+00 -1.388919999999999932e+00 4.493520000000000181e+00 6.047999999999999904e-02 3.020739999999999981e+00 1.868069999999999897e+00 5.151019999999999932e+00 3.154110000000000191e+00 1.893690000000000095e+00 9.926589999999999137e+00 1.516860000000000097e+00 4.497040000000000148e+00 4.994530000000000136e+00 1.427899999999999947e+00 4.465329999999999799e+00 9.939030000000000697e+00
1.588249999999999940e+00 8.219699999999999784e-01 4.301540000000000141e+00 1.578689999999999927e+00 9.244700000000000140e-01 9.318329999999999558e+00 1.731199999999999961e-01 3.620999999999999996e+00 4.441279999999999895e+00 8.515999999999999959e-02 3.557370000000000143e+00 9.361720000000000041e+00 4.696570000000000356e+00 9.844100000000000072e-01 4.465340000000000309e+00 3.103800000000000114e+00 3.605519999999999836e+00 4.370599999999999596e+00 3.171300000000000008e+00 3.626920000000000144e+00 9.302049999999999486e+00 -6.987000000000000155e-02 1.887809999999999988e+00 1.845120000000000093e+00 7.108000000000000429e-02 1.816859999999999919e+00 6.863419999999999632e+00 -1.466809999999999947e+00 4.452549999999999564e+00 1.945580000000000087e+00 -1.337839999999999918e+00 4.491469999999999629e+00 6.889579999999999593e+00 2.914429999999999854e+00 1.799260000000000081e+00 1.841120000000000090e+00 3.084690000000000154e+00 1.861010000000000053e+00 6.875040000000000262e+00 1.594160000000000021e+00 4.479879999999999640e+00 1.890840000000000076e+00 1.588750000000000107e+00 4.413039999999999630e+00 6.937689999999999912e+00 1.396859999999999991e+00 8.784600000000000186e-01 2.418750000000000178e+00 1.677229999999999999e+00 9.657900000000000373e-01 7.542729999999999713e+00 5.754000000000000087e-02 3.559860000000000024e+00 2.479569999999999830e+00 4.349000000000000088e-02 3.575559999999999850e+00 7.512609999999999566e+00 4.536249999999999893e+00 9.150099999999999900e-01 2.295129999999999892e+00 4.684840000000000337e+00 9.096499999999999586e-01 7.486379999999999590e+00 3.024579999999999824e+00 3.500440000000000218e+00 2.592270000000000074e+00 3.219390000000000196e+00 3.656029999999999891e+00 7.369229999999999947e+00 8.838000000000000023e-02 1.690830000000000055e+00 5.018830000000000346e+00 1.946000000000000160e-02 1.807520000000000016e+00 9.922349999999999781e+00 -1.467370000000000063e+00 4.388740000000000308e+00 4.982400000000000162e+00 -1.360859999999999959e+00 4.485439999999999650e+00 9.909990000000000521e+00 3.136929999999999996e+00 1.820040000000000102e+00 5.091000000000000192e+00 3.113939999999999930e+00 1.922590000000000021e+00 9.886820000000000164e+00 1.562599999999999989e+00 4.566659999999999719e+00 5.031310000000000393e+00 1.665480000000000071e+00 4.697779999999999845e+00 9.919760000000000133e+00
1.513900000000000023e+00 8.943699999999999983e-01 4.338250000000000384e+00 1.534170000000000034e+00 8.704800000000000315e-01 9.241350000000000620e+00 -1.257999999999999917e-02 3.553360000000000074e+00 4.312179999999999680e+00 -1.813999999999999987e-02 3.561659999999999826e+00 9.237989999999999924e+00 4.608900000000000219e+00 8.795199999999999685e-01 4.327890000000000015e+00 3.052519999999999900e+00 3.558600000000000207e+00 4.367549999999999599e+00 3.072159999999999780e+00 3.524329999999999963e+00 9.222730000000000317e+00 2.656999999999999987e-02 1.774370000000000003e+00 1.870980000000000087e+00 -5.669999999999999693e-03 1.803600000000000092e+00 6.837819999999999787e+00 -1.558759999999999923e+00 4.426239999999999952e+00 1.876600000000000046e+00 -1.553509999999999946e+00 4.463680000000000092e+00 6.793800000000000061e+00 3.052160000000000206e+00 1.771030000000000104e+00 1.873909999999999965e+00 3.063429999999999875e+00 1.773930000000000007e+00 6.794850000000000279e+00 1.504490000000000105e+00 4.455919999999999881e+00 1.882239999999999913e+00 1.503929999999999989e+00 4.461190000000000211e+00 6.805419999999999803e+00 1.539830000000000032e+00 8.754399999999999959e-01 2.473829999999999973e+00 1.527539999999999898e+00 8.981599999999999584e-01 7.401539999999999786e+00 -1.527000000000000059e-02 3.540230000000000210e+00 2.481860000000000177e+00 -7.089999999999999948e-03 3.566320000000000157e+00 7.376590000000000202e+00 4.617160000000000153e+00 8.971799999999999775e-01 2.451639999999999819e+00 4.601770000000000138e+00 9.094600000000000461e-01 7.438559999999999839e+00 3.016579999999999817e+00 3.559569999999999901e+00 2.490639999999999965e+00 3.076000000000000068e+00 3.543200000000000127e+00 7.350150000000000183e+00 -2.699999999999999969e-02 1.780999999999999917e+00 4.928230000000000111e+00 -4.288000000000000145e-02 1.765439999999999898e+00 9.820050000000000168e+00 -1.556200000000000028e+00 4.463269999999999627e+00 4.912379999999999747e+00 -1.572380000000000111e+00 4.464940000000000353e+00 1.832999999999999907e-02 3.065119999999999845e+00 1.768990000000000062e+00 4.904939999999999856e+00 3.128099999999999881e+00 1.733470000000000066e+00 9.824109999999999232e+00 1.510369999999999990e+00 4.436390000000000278e+00 4.925040000000000084e+00 1.513679999999999914e+00 4.461979999999999613e+00 9.846479999999999677e+00
1.439950000000000063e+00 9.178500000000000547e-01 4.439560000000000173e+00 1.400199999999999889e+00 7.857199999999999740e-01 9.459590000000000387e+00 -2.207199999999999995e-01 3.566069999999999851e+00 4.294590000000000352e+00 -1.374100000000000044e-01 3.585420000000000051e+00 9.336729999999999308e+00 4.581070000000000420e+00 8.914400000000000102e-01 4.338320000000000398e+00 3.069020000000000081e+00 3.330859999999999932e+00 4.477579999999999671e+00 2.986730000000000107e+00 3.366690000000000182e+00 9.359880000000000422e+00 -1.571700000000000041e-01 1.616889999999999938e+00 1.952210000000000001e+00 -1.228299999999999947e-01 1.724140000000000006e+00 6.943699999999999761e+00 -1.546010000000000106e+00 4.245709999999999873e+00 1.804119999999999946e+00 -1.471410000000000107e+00 4.552649999999999864e+00 6.755160000000000053e+00 3.051299999999999901e+00 1.721910000000000052e+00 1.856389999999999985e+00 3.081020000000000092e+00 1.600619999999999932e+00 7.032499999999999751e+00 1.717929999999999957e+00 4.268229999999999968e+00 1.748809999999999976e+00 1.609939999999999927e+00 4.527129999999999654e+00 6.830059999999999576e+00 1.541199999999999903e+00 8.113099999999999756e-01 2.590139999999999887e+00 1.500359999999999916e+00 8.809599999999999653e-01 7.593709999999999738e+00 9.199999999999999845e-02 3.580890000000000128e+00 2.447130000000000027e+00 4.605000000000000066e-02 3.506110000000000060e+00 7.445789999999999687e+00 4.463540000000000063e+00 6.753299999999999859e-01 2.548059999999999992e+00 4.564610000000000056e+00 8.871900000000000341e-01 7.418700000000000294e+00 3.325159999999999894e+00 3.515080000000000204e+00 2.576610000000000067e+00 3.011639999999999873e+00 3.509590000000000209e+00 7.511440000000000339e+00 -2.733999999999999972e-02 1.738040000000000029e+00 4.939269999999999605e+00 -3.702799999999999980e-01 1.533700000000000063e+00 9.889989999999999171e+00 -1.634269999999999889e+00 4.440479999999999983e+00 5.011409999999999698e+00 -1.405489999999999906e+00 4.543389999999999596e+00 1.166000000000000023e-02 3.037990000000000190e+00 1.727360000000000007e+00 5.211380000000000123e+00 2.924249999999999794e+00 1.722299999999999942e+00 9.916800000000000281e+00 1.473260000000000014e+00 4.421739999999999782e+00 4.900299999999999656e+00 1.315499999999999892e+00 4.296820000000000306e+00 9.853979999999999961e+00
1.439419999999999922e+00 8.900900000000000478e-01 4.456789999999999807e+00 1.484900000000000109e+00 1.008620000000000072e+00 9.151709999999999567e+00 -1.703000000000000000e-02 3.668740000000000112e+00 4.336619999999999919e+00 -1.906499999999999861e-01 3.622980000000000089e+00 9.213490000000000180e+00 4.660870000000000068e+00 8.376900000000000457e-01 4.487129999999999619e+00 3.073760000000000048e+00 3.640260000000000051e+00 4.265360000000000262e+00 2.847249999999999837e+00 3.527219999999999800e+00 9.209720000000000795e+00 -8.608999999999999986e-02 1.795909999999999895e+00 1.992140000000000022e+00 -4.150000000000000216e-02 1.799050000000000038e+00 6.876280000000000392e+00 -1.532459999999999933e+00 4.632640000000000313e+00 1.772969999999999935e+00 -1.650349999999999984e+00 4.470049999999999635e+00 6.841759999999999842e+00 3.095250000000000057e+00 1.759339999999999904e+00 1.852009999999999934e+00 2.941339999999999844e+00 1.786799999999999944e+00 6.832830000000000403e+00 1.593299999999999939e+00 4.405560000000000365e+00 1.948649999999999993e+00 1.444499999999999895e+00 4.504699999999999704e+00 6.941900000000000404e+00 1.540129999999999999e+00 1.012229999999999963e+00 2.527620000000000200e+00 1.432379999999999987e+00 9.023200000000000109e-01 7.325140000000000207e+00 -6.968000000000000582e-02 3.598450000000000149e+00 2.334499999999999797e+00 -1.497699999999999865e-01 3.536029999999999784e+00 7.367040000000000255e+00 4.645719999999999850e+00 7.552799999999999514e-01 2.619149999999999867e+00 4.381910000000000416e+00 9.504599999999999715e-01 7.520209999999999617e+00 3.036690000000000111e+00 3.558019999999999960e+00 2.344219999999999970e+00 3.032579999999999831e+00 3.607909999999999950e+00 7.311119999999999841e+00 -6.250000000000000347e-03 1.929189999999999960e+00 5.002180000000000071e+00 -3.432000000000000328e-02 1.762939999999999952e+00 9.820100000000000051e+00 -1.618400000000000061e+00 4.563399999999999679e+00 4.769040000000000390e+00 -1.769879999999999898e+00 4.589489999999999625e+00 9.730900000000000105e+00 2.991280000000000161e+00 1.794070000000000054e+00 4.927310000000000301e+00 3.095159999999999911e+00 1.750690000000000079e+00 9.781299999999999883e+00 1.502359999999999918e+00 4.450169999999999959e+00 4.956710000000000171e+00 1.487800000000000011e+00 4.559359999999999857e+00 9.733459999999999113e+00
1.554910000000000014e+00 8.847300000000000164e-01 4.315100000000000158e+00 1.419859999999999900e+00 9.153099999999999570e-01 9.186690000000000467e+00 3.622999999999999832e-02 3.400710000000000122e+00 4.397739999999999760e+00 -1.238999999999999997e-02 3.467849999999999877e+00 9.255710000000000548e+00 4.505659999999999776e+00 9.505200000000000315e-01 4.332569999999999588e+00 3.000830000000000108e+00 3.589609999999999967e+00 4.252320000000000100e+00 3.042580000000000062e+00 3.520719999999999850e+00 9.208740000000000592e+00 -4.055000000000000271e-02 1.654519999999999991e+00 1.811439999999999939e+00 2.417000000000000051e-02 1.684360000000000079e+00 6.767509999999999692e+00 -1.460790000000000033e+00 4.369180000000000064e+00 1.815290000000000070e+00 -1.458830000000000071e+00 4.286959999999999660e+00 6.840209999999999901e+00 3.088999999999999968e+00 1.811569999999999903e+00 1.817979999999999929e+00 2.975220000000000198e+00 1.678230000000000111e+00 6.790199999999999569e+00 1.456530000000000102e+00 4.234239999999999782e+00 1.775819999999999954e+00 1.497789999999999955e+00 4.269890000000000185e+00 6.758799999999999919e+00 1.477629999999999999e+00 8.509900000000000242e-01 2.328219999999999956e+00 1.467109999999999914e+00 7.998899999999999899e-01 7.326459999999999972e+00 4.485000000000000098e-02 3.365299999999999958e+00 2.521999999999999797e+00 8.706999999999999462e-02 3.442480000000000206e+00 7.406150000000000233e+00 4.432159999999999656e+00 8.040699999999999514e-01 2.479060000000000041e+00 4.511269999999999669e+00 8.221399999999999819e-01 7.330709999999999837e+00 2.942429999999999879e+00 3.483449999999999935e+00 2.498019999999999907e+00 3.025349999999999984e+00 3.452840000000000131e+00 7.351919999999999789e+00 -1.857999999999999929e-02 1.733540000000000081e+00 4.989600000000000257e+00 -2.327599999999999947e-01 1.657319999999999904e+00 9.717950000000000088e+00 -1.546750000000000069e+00 4.406719999999999970e+00 4.975810000000000066e+00 -1.299350000000000005e+00 4.378339999999999677e+00 1.016000000000000063e-02 3.005819999999999936e+00 1.740720000000000045e+00 4.931720000000000326e+00 2.970940000000000136e+00 1.727149999999999963e+00 9.721650000000000347e+00 1.451449999999999907e+00 4.336610000000000298e+00 4.894409999999999705e+00 1.492790000000000061e+00 4.395669999999999966e+00 9.696389999999999176e+00
1.560670000000000002e+00 8.775500000000000522e-01 4.373429999999999929e+00 1.516960000000000086e+00 8.679299999999999793e-01 9.300000000000000711e+00 2.464999999999999830e-02 3.540610000000000035e+00 4.369130000000000180e+00 -3.613000000000000239e-02 3.519369999999999887e+00 9.286360000000000170e+00 4.631789999999999630e+00 8.846500000000000474e-01 4.315760000000000041e+00 3.087959999999999816e+00 3.549679999999999946e+00 4.386070000000000135e+00 3.030730000000000146e+00 3.522720000000000073e+00 9.305170000000000385e+00 4.055000000000000271e-02 1.790859999999999896e+00 1.869860000000000078e+00 -4.629999999999999567e-03 1.775579999999999936e+00 6.861539999999999750e+00 -1.559250000000000025e+00 4.444810000000000372e+00 1.876929999999999987e+00 -1.570440000000000058e+00 4.447560000000000180e+00 6.837220000000000297e+00 3.048090000000000188e+00 1.804559999999999942e+00 1.892730000000000024e+00 3.090240000000000098e+00 1.752860000000000085e+00 6.860170000000000101e+00 1.556499999999999995e+00 4.396080000000000432e+00 1.883760000000000101e+00 1.492040000000000033e+00 4.447219999999999729e+00 6.818120000000000402e+00 1.552650000000000086e+00 8.767700000000000493e-01 2.497129999999999850e+00 1.547860000000000014e+00 8.853299999999999503e-01 7.433139999999999858e+00 1.073999999999999955e-02 3.558969999999999967e+00 2.500690000000000079e+00 -2.845999999999999919e-02 3.530720000000000081e+00 7.418359999999999843e+00 4.643559999999999910e+00 8.810700000000000198e-01 2.395999999999999908e+00 4.617079999999999629e+00 8.963200000000000056e-01 7.448750000000000426e+00 3.091009999999999813e+00 3.529139999999999944e+00 2.509079999999999977e+00 3.048259999999999970e+00 3.552900000000000169e+00 7.424159999999999648e+00 -4.819999999999999632e-03 1.776259999999999950e+00 4.919179999999999886e+00 -2.844000000000000000e-02 1.743209999999999926e+00 9.901859999999999218e+00 -1.523539999999999894e+00 4.428420000000000023e+00 4.968729999999999869e+00 -1.591089999999999893e+00 4.439090000000000202e+00 1.612999999999999851e-02 3.094219999999999970e+00 1.778759999999999897e+00 4.949279999999999902e+00 3.077679999999999971e+00 1.754040000000000044e+00 2.642999999999999863e-02 1.549309999999999965e+00 4.456710000000000171e+00 4.947879999999999612e+00 1.496369999999999978e+00 4.416929999999999801e+00 2.629999999999999959e-03
1.363339999999999996e+00 7.573900000000000077e-01 4.109880000000000422e+00 1.543250000000000011e+00 8.988899999999999668e-01 9.062329999999999330e+00 -6.594999999999999474e-02 3.535379999999999967e+00 4.374050000000000438e+00 -1.711499999999999966e-01 3.443070000000000075e+00 9.315559999999999619e+00 4.454469999999999708e+00 8.289600000000000302e-01 4.171280000000000321e+00 2.856780000000000097e+00 3.457629999999999981e+00 4.332419999999999938e+00 2.773979999999999890e+00 3.440859999999999808e+00 9.187049999999999272e+00 -1.514399999999999913e-01 1.627140000000000031e+00 1.762010000000000076e+00 3.588999999999999829e-02 1.852240000000000109e+00 6.609049999999999869e+00 -1.571890000000000009e+00 4.353150000000000297e+00 1.902940000000000076e+00 -1.461030000000000051e+00 4.340239999999999654e+00 6.773699999999999832e+00 2.994909999999999961e+00 1.660460000000000047e+00 1.766939999999999955e+00 3.037269999999999914e+00 1.692539999999999933e+00 6.702410000000000423e+00 1.549889999999999990e+00 4.254450000000000287e+00 1.948460000000000081e+00 1.496410000000000018e+00 4.329170000000000407e+00 6.812179999999999680e+00 1.414930000000000021e+00 9.102599999999999580e-01 2.305829999999999824e+00 1.458159999999999901e+00 1.003549999999999942e+00 7.252139999999999809e+00 -4.639000000000000068e-02 3.440980000000000150e+00 2.425390000000000157e+00 -5.161999999999999922e-02 3.548410000000000064e+00 7.429490000000000371e+00 4.421100000000000030e+00 8.053000000000000158e-01 2.363410000000000011e+00 4.494139999999999802e+00 8.574600000000000000e-01 7.336780000000000079e+00 3.049840000000000106e+00 3.411249999999999893e+00 2.561290000000000067e+00 2.872679999999999900e+00 3.407620000000000093e+00 7.345010000000000261e+00 -6.403999999999999970e-02 1.673030000000000017e+00 4.803790000000000227e+00 -1.159999999999999920e-02 1.627089999999999925e+00 9.653439999999999799e+00 -1.490969999999999906e+00 4.338879999999999626e+00 4.999109999999999943e+00 -1.638400000000000079e+00 4.399259999999999948e+00 9.886999999999999955e-02 2.803760000000000030e+00 1.749460000000000015e+00 4.805629999999999846e+00 3.026590000000000114e+00 1.648330000000000073e+00 9.599949999999999761e+00 1.356670000000000043e+00 4.486839999999999939e+00 4.973069999999999879e+00 1.505500000000000060e+00 4.371950000000000003e+00 1.585699999999999887e-01
1.562319999999999931e+00 9.038800000000000168e-01 4.358939999999999593e+00 1.540329999999999977e+00 8.823600000000000332e-01 9.273179999999999978e+00 -2.329000000000000167e-02 3.518670000000000186e+00 4.312039999999999651e+00 -6.709999999999999819e-03 3.492360000000000131e+00 9.249940000000000495e+00 4.626800000000000246e+00 8.750900000000000345e-01 4.378049999999999997e+00 3.076290000000000191e+00 3.546469999999999789e+00 4.331909999999999705e+00 3.070939999999999781e+00 3.467870000000000008e+00 9.248639999999999972e+00 2.409000000000000030e-02 1.753959999999999964e+00 1.911089999999999955e+00 1.898999999999999994e-02 1.760329999999999950e+00 6.825050000000000061e+00 -1.545460000000000056e+00 4.441849999999999632e+00 1.853900000000000103e+00 -1.550699999999999967e+00 4.395380000000000287e+00 6.810469999999999580e+00 3.099369999999999958e+00 1.753309999999999924e+00 1.895869999999999944e+00 3.050330000000000208e+00 1.771840000000000082e+00 6.807559999999999611e+00 1.529979999999999896e+00 4.379019999999999690e+00 1.856500000000000039e+00 1.498310000000000031e+00 4.406480000000000175e+00 6.782519999999999882e+00 1.576519999999999921e+00 8.869500000000000162e-01 2.485520000000000174e+00 1.535020000000000051e+00 8.591199999999999948e-01 7.409259999999999735e+00 -1.108999999999999916e-02 3.518450000000000077e+00 2.440080000000000027e+00 -9.150000000000000147e-03 3.528369999999999784e+00 7.406579999999999941e+00 4.610680000000000334e+00 8.434899999999999620e-01 2.483449999999999935e+00 4.593519999999999825e+00 8.594300000000000272e-01 7.353939999999999699e+00 3.095969999999999889e+00 3.529809999999999892e+00 2.447490000000000165e+00 3.052410000000000068e+00 3.557259999999999867e+00 7.376129999999999853e+00 -8.970000000000000542e-03 1.761300000000000088e+00 4.945649999999999658e+00 -1.615000000000000116e-02 1.740560000000000107e+00 3.586999999999999911e-02 -1.532280000000000086e+00 4.430229999999999890e+00 4.910339999999999705e+00 -1.544499999999999984e+00 4.409500000000000419e+00 2.050000000000000173e-03 3.087089999999999890e+00 1.782189999999999941e+00 4.940129999999999910e+00 3.112350000000000172e+00 1.677189999999999959e+00 9.826969999999999317e+00 1.513470000000000093e+00 4.398620000000000196e+00 4.888910000000000089e+00 1.574470000000000036e+00 4.397590000000000110e+00 9.820399999999999352e+00
1.549979999999999913e+00 7.541700000000000070e-01 4.365940000000000154e+00 1.545309999999999961e+00 8.165299999999999780e-01 9.215230000000000032e+00 8.551999999999999880e-02 3.541850000000000165e+00 4.423989999999999867e+00 -9.260999999999999788e-02 3.515499999999999847e+00 9.487429999999999808e+00 4.585040000000000227e+00 8.673300000000000454e-01 4.208459999999999646e+00 3.113519999999999843e+00 3.534089999999999954e+00 4.470919999999999561e+00 2.942130000000000134e+00 3.518209999999999837e+00 9.207140000000000768e+00 -2.015000000000000124e-02 1.711149999999999949e+00 2.009269999999999889e+00 -9.679000000000000103e-02 1.763290000000000024e+00 6.915729999999999933e+00 -1.520310000000000050e+00 4.503619999999999735e+00 1.871420000000000083e+00 -1.610130000000000061e+00 4.432059999999999889e+00 6.869299999999999962e+00 3.054889999999999883e+00 1.844019999999999992e+00 1.858570000000000055e+00 2.985840000000000050e+00 1.809120000000000061e+00 6.756780000000000008e+00 1.496399999999999952e+00 4.373590000000000089e+00 1.777689999999999992e+00 1.486750000000000016e+00 4.437500000000000000e+00 6.734639999999999738e+00 1.617390000000000105e+00 9.606599999999999584e-01 2.524519999999999875e+00 1.520389999999999908e+00 9.367799999999999461e-01 7.309280000000000221e+00 4.624000000000000332e-02 3.521430000000000060e+00 2.485790000000000166e+00 -3.406000000000000000e-02 3.610590000000000188e+00 7.336859999999999715e+00 4.556949999999999612e+00 9.142099999999999671e-01 2.310140000000000082e+00 4.486839999999999939e+00 8.566599999999999770e-01 7.416800000000000281e+00 3.120169999999999888e+00 3.633849999999999802e+00 2.523289999999999811e+00 3.032379999999999853e+00 3.530780000000000030e+00 7.401749999999999829e+00 -6.919999999999999936e-03 1.739190000000000014e+00 4.857409999999999783e+00 -1.061999999999999923e-02 1.658309999999999951e+00 1.105300000000000032e-01 -1.482909999999999950e+00 4.362429999999999808e+00 4.963599999999999568e+00 -1.649240000000000039e+00 4.455090000000000217e+00 5.983000000000000124e-02 3.130199999999999871e+00 1.618789999999999951e+00 4.884619999999999962e+00 3.018600000000000172e+00 1.722630000000000106e+00 4.812999999999999917e-02 1.636840000000000073e+00 4.380010000000000403e+00 4.791310000000000180e+00 1.484320000000000084e+00 4.431390000000000384e+00 9.813100000000000378e+00
1.385270000000000001e+00 8.488799999999999679e-01 4.403810000000000002e+00 1.302750000000000075e+00 7.903200000000000225e-01 9.335499999999999687e+00 -1.506099999999999939e-01 3.522019999999999929e+00 4.300019999999999953e+00 -1.420500000000000096e-01 3.531130000000000102e+00 9.303229999999999222e+00 4.462060000000000137e+00 7.827199999999999713e-01 4.433860000000000134e+00 2.967769999999999797e+00 3.481770000000000032e+00 4.440750000000000419e+00 2.893369999999999997e+00 3.455569999999999808e+00 9.352430000000000021e+00 -5.442999999999999922e-02 1.694190000000000085e+00 1.925210000000000088e+00 -1.404400000000000093e-01 1.639669999999999961e+00 6.956599999999999895e+00 -1.595599999999999907e+00 4.355279999999999596e+00 1.770880000000000010e+00 -1.710939999999999905e+00 4.410700000000000287e+00 6.822400000000000020e+00 3.049170000000000158e+00 1.758189999999999920e+00 2.009469999999999867e+00 3.020459999999999923e+00 1.605620000000000047e+00 6.831769999999999676e+00 1.500750000000000028e+00 4.383869999999999933e+00 1.955310000000000104e+00 1.380309999999999926e+00 4.263329999999999842e+00 6.850480000000000125e+00 1.516850000000000032e+00 8.404599999999999849e-01 2.483039999999999914e+00 1.389990000000000059e+00 8.323800000000000088e-01 7.394680000000000142e+00 -6.482000000000000262e-02 3.499460000000000015e+00 2.464640000000000164e+00 -1.944400000000000017e-01 3.432640000000000136e+00 7.410400000000000098e+00 4.692529999999999646e+00 8.702499999999999680e-01 2.522040000000000060e+00 4.465550000000000352e+00 6.167300000000000004e-01 7.469619999999999926e+00 3.112109999999999932e+00 3.502460000000000129e+00 2.449530000000000207e+00 2.888860000000000205e+00 3.388329999999999842e+00 7.446279999999999788e+00 -1.340000000000000080e-01 1.696819999999999995e+00 5.011680000000000135e+00 -2.949100000000000055e-01 1.731479999999999908e+00 9.865190000000000126e+00 -1.722159999999999913e+00 4.380029999999999646e+00 4.916769999999999641e+00 -1.803469999999999906e+00 4.357639999999999958e+00 9.924250000000000682e+00 2.999379999999999935e+00 1.649140000000000050e+00 5.003230000000000288e+00 3.000360000000000138e+00 1.742259999999999920e+00 2.600999999999999840e-02 1.429680000000000062e+00 4.303469999999999906e+00 4.975660000000000416e+00 1.529600000000000071e+00 4.509830000000000005e+00 9.499999999999999981e-04
1.292489999999999917e+00 5.621199999999999530e-01 4.262889999999999624e+00 8.857599999999999918e-01 4.269100000000000117e-01 9.356749999999999901e+00 -1.354599999999999971e-01 3.396279999999999966e+00 4.464150000000000063e+00 -4.514900000000000024e-01 3.599169999999999980e+00 9.551909999999999457e+00 4.370930000000000426e+00 5.393999999999999906e-01 4.279779999999999696e+00 2.854179999999999939e+00 3.335539999999999949e+00 4.389859999999999651e+00 2.534050000000000136e+00 3.069360000000000088e+00 9.343339999999999534e+00 -1.065099999999999936e-01 1.691140000000000088e+00 1.989610000000000101e+00 -4.011700000000000266e-01 1.607580000000000009e+00 6.882430000000000270e+00 -1.863210000000000033e+00 4.281450000000000422e+00 1.794650000000000079e+00 -1.952990000000000004e+00 4.281299999999999883e+00 6.836149999999999949e+00 2.852660000000000196e+00 1.651089999999999947e+00 1.918570000000000109e+00 2.757309999999999928e+00 1.507910000000000084e+00 6.850240000000000329e+00 1.256050000000000111e+00 4.471140000000000114e+00 1.946029999999999927e+00 1.128810000000000091e+00 4.117519999999999847e+00 7.033229999999999649e+00 1.433470000000000022e+00 5.821899999999999853e-01 2.440319999999999823e+00 1.226010000000000044e+00 6.740399999999999725e-01 7.482569999999999943e+00 -1.976199999999999901e-01 3.576400000000000023e+00 2.591060000000000141e+00 -3.837800000000000100e-01 3.412329999999999863e+00 7.663540000000000241e+00 4.522140000000000271e+00 7.480999999999999872e-01 2.589150000000000063e+00 4.203090000000000437e+00 6.899199999999999777e-01 7.563240000000000407e+00 2.879480000000000040e+00 3.427369999999999806e+00 2.524890000000000079e+00 2.597960000000000047e+00 3.110970000000000013e+00 7.617320000000000313e+00 -1.955999999999999961e-01 1.569909999999999917e+00 4.987720000000000375e+00 -5.651399999999999757e-01 1.577430000000000110e+00 9.903359999999999275e+00 -1.702800000000000091e+00 4.251019999999999577e+00 4.992899999999999672e+00 -1.598880000000000079e+00 4.555119999999999614e+00 1.283199999999999896e-01 2.766630000000000145e+00 1.496899999999999897e+00 4.895319999999999894e+00 2.874099999999999877e+00 1.776040000000000063e+00 5.689999999999999919e-02 1.438250000000000028e+00 4.203710000000000058e+00 5.036999999999999922e+00 1.530759999999999899e+00 4.532429999999999737e+00 1.560199999999999920e-01