8.079349999999999588e-01 2.556900000000000145e-02 1.567776000000000058e+00 2.436719999999999997e-01 2.050589999999999913e-01 5.511129999999999640e-01 9.623519999999999852e-01 -5.397950000000000248e-01 -2.683419000000000221e+00 -1.442029999999999978e-01 -3.708270000000000177e-01 -5.723570000000000046e-01 1.850500000000000062e-02 2.272780000000000078e-01 1.446762000000000103e+00 3.746030000000000193e-01 1.871680000000000010e+00 -1.167330999999999896e+00 8.308440000000000270e-01 9.046330000000000204e-01 -2.045370999999999828e+00 -2.340335000000000054e+00 1.108880000000000005e-01 5.709250000000000158e-01 -4.657540000000000013e-01 -9.069089999999999652e-01 -8.254409999999999803e-01 -2.652140999999999860e+00 8.108039999999999692e-01 1.970703000000000094e+00 -7.363359999999999905e-01 -1.174110000000000015e-01 1.401507000000000058e+00 -7.893200000000000216e-02 -2.183129999999999793e+00 1.119947000000000026e+00 5.324929999999999941e-01 -2.166109999999999980e-01 -9.282569999999999988e-01 -1.153259999999999952e+00 9.152169999999999472e-01 2.579143999999999881e+00 2.036106000000000193e+00 1.664665999999999979e+00 3.397850000000000037e-01 1.599423999999999957e+00 7.844360000000000221e-01 -1.930519000000000096e+00 -6.848750000000000115e-01 -1.335858999999999908e+00 3.148659999999999792e-01 2.749306999999999945e+00 -1.645391999999999966e+00 5.421869999999999745e-01 -8.990299999999999958e-01 1.755314000000000041e+00 1.236140999999999934e+00 1.403326000000000073e+00 4.975120000000000098e-01 -2.018674999999999997e+00 -2.398280000000000134e-01 -1.562532999999999950e+00 -3.637549999999999950e-01 9.180260000000000087e-01 3.838829999999999742e-01 -3.521369999999999778e-01 -2.233789999999999942e-01 1.047562000000000104e+00 2.574210000000000109e-01 1.016542999999999974e+00 3.205040000000000111e-01 -3.241829999999999989e-01 -1.422229999999999883e-01 6.124330000000000052e-01 3.854440000000000088e-01 -1.590378000000000069e+00 -1.122790000000000038e-01 1.330011000000000054e+00 -1.255049000000000081e+00 -3.085820000000000229e-01 -1.883645999999999932e+00 -5.642899999999999583e-01 -1.405920999999999976e+00 -1.220080000000000053e+00 -8.462790000000000035e-01 -8.721449999999999481e-01 4.287770000000000192e-01 -4.263649999999999940e-01 -7.682069999999999732e-01 7.736720000000000264e-01 9.495200000000000307e-01 2.081639999999999879e-01 -5.010109999999999841e-01
2.623800000000000021e-01 8.684380000000000432e-01 1.382876999999999912e+00 4.878759999999999764e-01 1.307629999999999904e-01 1.468028000000000111e+00 -1.782793000000000072e+00 -1.780491000000000046e+00 -9.811410000000000409e-01 1.024717000000000100e+00 8.302260000000000195e-01 -1.349770000000000136e-01 -2.145579999999999821e+00 -7.835980000000000167e-01 -1.465762999999999927e+00 -3.761959999999999749e-01 -7.368369999999999642e-01 2.195999000000000034e+00 1.074809999999999932e-01 1.143585999999999991e+00 -3.765220000000000233e-01 1.864810000000000079e-01 -1.790235000000000021e+00 -2.846710000000000074e-01 4.300180000000000113e-01 -6.364919999999999467e-01 1.189186000000000076e+00 -1.281158000000000019e+00 -6.008909999999999529e-01 -1.268790000000000084e+00 -1.680806000000000022e+00 1.167119999999999935e+00 -8.579630000000000312e-01 1.227033999999999958e+00 -1.383149999999999935e-01 -1.726360000000000117e-01 1.697745000000000060e+00 -1.027779999999999944e-01 1.010159000000000029e+00 -4.678430000000000089e-01 -5.527499999999999775e-02 -5.742749999999999799e-01 5.890339999999999465e-01 1.679794999999999927e+00 -4.176139999999999852e-01 1.136851999999999974e+00 -2.230360000000000120e-01 9.154160000000000075e-01 -1.557447999999999944e+00 -6.765029999999999655e-01 -1.672911000000000037e+00 -1.666860000000000008e-01 1.537673999999999985e+00 1.241003999999999996e+00 1.574233999999999911e+00 -8.156560000000000477e-01 -1.842219999999999969e-01 -5.875000000000000222e-01 5.622840000000000060e-01 2.242080000000000073e+00 -6.197049999999999503e-01 -1.298400000000000110e-01 -2.560290000000000066e-01 1.048197000000000045e+00 9.598849999999999882e-01 -2.106346999999999969e+00 -9.840090000000000225e-01 -4.178020000000000067e-01 1.729908999999999919e+00 1.858576000000000006e+00 2.333035000000000192e+00 -6.562369999999999592e-01 5.626050000000000217e-01 -4.503299999999999664e-02 2.729000000000000089e-03 1.507438000000000056e+00 1.213583000000000078e+00 -7.335199999999999498e-01 -1.382533999999999930e+00 2.553909999999999791e-01 1.486965000000000092e+00 -9.286929999999999907e-01 -5.247209999999999930e-01 -3.002419999999999867e+00 -6.295800000000000285e-01 -8.035579999999999945e-01 6.961140000000000105e-01 8.424749999999999739e-01 -6.258329999999999727e-01 -1.751860000000000084e-01 4.738499999999999657e-02 -1.794885999999999981e+00 -2.392420000000000102e-01
1.432479999999999865e-01 6.163400000000000128e-02 1.136459999999999970e-01 1.721999999999999920e-02 2.936900000000000066e-01 6.101860000000000062e-01 -2.569130000000000025e-01 -6.656999999999999723e-03 8.458459999999999868e-01 -1.580080000000000096e-01 7.485200000000000187e-02 5.456560000000000299e-01 -2.158619999999999983e-01 1.259500000000000029e-02 8.381299999999999861e-02 -7.959099999999999508e-02 -1.602939999999999920e-01 -2.848950000000000093e-01 -1.450899999999999967e-01 3.566369999999999818e-01 5.776980000000000448e-01 -5.157669999999999755e-01 -2.739600000000000021e-02 -1.342379999999999962e-01 -1.111520000000000008e-01 -3.891859999999999764e-01 -5.943439999999999834e-01 -1.599260000000000126e-01 1.003629999999999939e-01 5.647990000000000510e-01 1.885280000000000011e-01 -5.182599999999999707e-02 -3.481650000000000023e-01 4.811480000000000201e-01 1.185380000000000045e-01 7.651600000000000068e-02 1.215659999999999935e-01 -1.117299999999999960e-01 -1.511149999999999993e-01 -7.700000000000000139e-05 1.616799999999999835e-02 -1.774299999999999836e-02 4.842870000000000230e-01 1.548930000000000029e-01 -1.710300000000000015e-02 -6.570800000000000252e-02 -2.107729999999999881e-01 -4.761190000000000144e-01 1.380619999999999903e-01 -2.967659999999999743e-01 -2.865550000000000042e-01 -1.843349999999999989e-01 1.767799999999999927e-01 -9.225170000000000314e-01 -4.221710000000000185e-01 4.148069999999999813e-01 3.244090000000000029e-01 -1.548609999999999987e-01 3.292699999999999794e-02 -4.143899999999999667e-02 -9.024300000000000377e-02 -3.229190000000000116e-01 9.847999999999999809e-02 5.721570000000000267e-01 -1.730180000000000051e-01 -5.878529999999999589e-01 -3.377859999999999752e-01 4.056219999999999826e-01 4.346130000000000271e-01 2.431850000000000123e-01 2.507799999999999960e-02 2.114149999999999918e-01 4.062720000000000220e-01 1.329999999999999932e-02 -4.595400000000000179e-02 1.711409999999999876e-01 -1.554020000000000123e-01 2.710600000000000231e-01 -2.972400000000000042e-02 -5.852880000000000305e-01 -6.377030000000000198e-01 3.803100000000000230e-02 -6.689100000000000601e-02 2.758289999999999909e-01 -4.332170000000000187e-01 3.199540000000000162e-01 -1.522570000000000034e-01 -4.115100000000000008e-02 3.385679999999999801e-01 1.304289999999999894e-01 3.967359999999999776e-01 -3.582589999999999941e-01 -4.663970000000000060e-01
1.789784999999999959e+00 -1.163289000000000017e+00 -1.639819999999999889e-01 -1.081914999999999960e+00 1.867949000000000082e+00 -1.559328000000000047e+00 3.071708999999999801e+00 -2.983669999999999933e-01 6.932310000000000416e-01 -1.769285999999999914e+00 -2.869993000000000016e+00 -1.472131999999999996e+00 -4.752370000000000205e-01 -1.005921999999999983e+00 2.254286000000000012e+00 -3.308889999999999887e-01 3.802728999999999804e+00 -7.476500000000000368e-01 1.845330000000000026e-01 3.350747000000000142e+00 -1.185837999999999948e+00 1.180250999999999939e+00 4.946960000000000246e-01 -6.137190000000000145e-01 1.965667999999999971e+00 1.046780000000000044e+00 -1.377170000000000005e+00 2.871820000000000039e+00 3.149678000000000200e+00 9.332660000000000400e-01 -8.022280000000000522e-01 -2.095286000000000204e+00 3.158487000000000045e+00 8.091199999999999781e-02 -7.438010000000000455e-01 8.758559999999999679e-01 -2.688633999999999968e+00 3.616709999999999869e+00 -1.001956999999999987e+00 -1.344322999999999935e+00 8.080979999999999830e-01 2.287751000000000090e+00 -9.384320000000000439e-01 -3.017492999999999981e+00 -3.657860000000000000e-01 -1.279976999999999920e+00 9.690159999999999885e-01 -2.358737000000000084e+00 -1.505752999999999897e+00 -1.301948000000000105e+00 -3.568339999999999845e-01 -8.380919999999999481e-01 -3.096544000000000185e+00 -1.079398000000000080e+00 -1.637623000000000051e+00 1.454750999999999905e+00 -1.067349999999999965e-01 2.014367000000000019e+00 2.092595000000000205e+00 -2.554943000000000186e+00 2.784194999999999975e+00 -1.072052000000000005e+00 2.476487999999999801e+00 -3.642698999999999909e+00 -2.793343000000000131e+00 -3.790419999999999900e-01 1.941449999999999898e+00 7.039670000000000094e-01 -3.288590000000000124e-01 -2.390249999999999986e+00 1.250539000000000067e+00 2.958459999999999979e-01 6.759610000000000340e-01 8.722320000000000073e-01 1.336051000000000100e+00 -6.159529999999999728e-01 -1.587949999999999917e-01 -7.299700000000000077e-01 -1.701899999999999968e+00 -2.551950999999999858e+00 -1.227270000000000028e-01 -5.462700000000000194e-02 -1.836200000000000054e+00 -2.314642000000000088e+00 3.677019999999999733e-01 -2.000773000000000135e+00 2.268609999999999793e+00 2.867399999999999949e-01 -6.929570000000000451e-01 6.199130000000000473e-01 3.882727000000000039e+00 1.218229000000000006e+00 1.619663999999999993e+00
9.225640000000000507e-01 2.795710000000000139e+00 -1.783786000000000094e+00 -4.556600000000000233e-02 -1.415510999999999964e+00 1.139672999999999936e+00 -8.036259999999999515e-01 -5.110919999999999908e-01 -5.502179999999999849e-01 2.878459999999999908e-01 -2.568369999999999820e-01 1.594292999999999960e+00 -1.296842000000000050e+00 1.567541000000000073e+00 -7.902829999999999577e-01 -1.114486000000000088e+00 -1.889489999999999892e+00 3.763560000000000239e-01 2.619223999999999997e+00 3.575699999999999990e-01 2.037589999999999957e-01 8.809810000000000141e-01 -2.165670000000000095e-01 -1.345185000000000075e+00 -2.165014000000000216e+00 5.042800000000000060e-02 -7.429419999999999913e-01 -6.770429999999999504e-01 -1.052221000000000073e+00 1.273136000000000045e+00 1.005892000000000008e+00 7.430700000000000083e-01 -1.829036000000000106e+00 8.137339999999999574e-01 -2.882310000000000150e-01 6.095979999999999732e-01 3.233230000000000270e-01 1.182366000000000028e+00 -1.571920999999999902e+00 -2.686247999999999969e+00 1.360694000000000070e+00 -2.040524000000000004e+00 -3.689200000000000257e-01 3.082899999999999877e-02 -1.281133999999999995e+00 -6.394360000000000044e-01 -1.061924000000000090e+00 -8.055759999999999588e-01 2.329179999999999862e-01 -6.772860000000000547e-01 4.859950000000000103e-01 2.793269999999999920e-01 6.107129999999999503e-01 7.709340000000000082e-01 9.679649999999999643e-01 1.268772000000000011e+00 7.085329999999999684e-01 -5.945780000000000509e-01 1.333776999999999990e+00 -8.514030000000000209e-01 2.056658999999999793e+00 -8.661210000000000298e-01 -6.799399999999999888e-01 2.906518000000000157e+00 -4.214740000000000153e-01 8.561569999999999458e-01 -1.988385999999999987e+00 -7.937290000000000179e-01 1.322025999999999923e+00 -1.371707999999999927e+00 -1.228750000000000009e+00 -2.613519999999999732e-01 -8.350929999999999742e-01 1.278364999999999974e+00 4.896699999999999942e-01 9.206459999999999644e-01 -2.412563000000000013e+00 2.411318000000000072e+00 9.032499999999999973e-01 -5.218350000000000488e-01 3.228199999999999820e-02 1.731141000000000041e+00 2.172379999999999867e-01 2.667059999999999986e-01 -1.005144000000000037e+00 3.371120000000000227e-01 1.807699999999999863e-01 6.292600000000000415e-01 7.411520000000000330e-01 9.887799999999999923e-01 -1.889157999999999893e+00 -2.617070000000000229e-01 8.233150000000000190e-01
-1.256245999999999974e+00 3.217969999999999997e-01 -5.303830000000000489e-01 1.354750000000000121e-01 -6.220379999999999798e-01 -1.199009999999999937e-01 -1.672938000000000036e+00 1.453775999999999957e+00 -1.038960000000000106e+00 1.704580999999999902e+00 -1.606079999999999952e+00 -2.028347000000000122e+00 4.411899999999999850e-02 -1.564149999999999929e+00 1.356860000000000011e-01 1.095779999999999949e-01 -1.252944000000000058e+00 2.628838000000000008e+00 4.092520000000000047e-01 -1.175550000000000067e-01 -5.068979999999999597e-01 -1.091952000000000034e+00 1.379859999999999975e-01 2.053770000000000040e-01 -1.210288999999999948e+00 3.796550000000000202e-01 8.866709999999999869e-01 -3.212700000000000278e-02 -2.013784999999999936e+00 1.459146000000000054e+00 -3.643449999999999744e-01 -6.304140000000000299e-01 -1.385558000000000067e+00 -1.593704000000000010e+00 -1.411097999999999963e+00 -4.779100000000000015e-02 6.982350000000000501e-01 6.005869999999999820e-01 -2.570979999999999932e-01 2.996550000000000047e-01 1.681486999999999954e+00 1.038950999999999958e+00 1.171408000000000005e+00 1.048354999999999926e+00 -4.795780000000000043e-01 1.225070000000000103e+00 8.766859999999999653e-01 1.274737999999999927e+00 6.673550000000000315e-01 4.931170000000000275e-01 1.587253000000000025e+00 -1.878808999999999951e+00 5.301289999999999614e-01 -1.169747000000000092e+00 -1.957642000000000104e+00 -9.252209999999999601e-01 3.111479999999999801e-01 1.218312999999999979e+00 1.825650000000000051e-01 -7.909920000000000284e-01 1.106390000000000012e-01 3.870250000000000079e-01 8.183679999999999843e-01 2.126176000000000066e+00 6.298300000000000010e-01 -2.670640999999999821e+00 4.762580000000000147e-01 -4.009409999999999918e-01 9.431969999999999521e-01 8.084750000000000547e-01 -9.163109999999999866e-01 -1.678161999999999932e+00 1.106816000000000022e+00 2.845520000000000271e-01 5.123250000000000304e-01 1.082357000000000014e+00 -1.344691000000000081e+00 -9.566360000000000419e-01 -4.039844999999999686e+00 9.432890000000000441e-01 3.115330000000000044e-01 -1.919780000000000098e-01 1.428676000000000057e+00 -4.777910000000000212e-01 2.370649999999999979e-01 9.462990000000000013e-01 6.767750000000000155e-01 1.071457000000000104e+00 9.095910000000000384e-01 2.382650000000000046e-01 5.875920000000000032e-01 -4.301740000000000008e-01 1.110211000000000059e+00
-1.539679999999999938e-01 -8.629000000000000559e-02 3.286000000000000032e-02 2.324720000000000120e-01 -3.488649999999999807e-01 4.192379999999999995e-01 -3.472399999999999931e-01 3.379119999999999902e-01 -4.029900000000000149e-02 -2.094890000000000085e-01 2.520939999999999848e-01 4.541560000000000041e-01 -1.701650000000000107e-01 1.697900000000000104e-02 7.910999999999999630e-03 5.184899999999999926e-02 6.570499999999999952e-02 -1.107220000000000010e-01 4.302960000000000118e-01 -6.247799999999999881e-02 5.167399999999999771e-02 -4.279930000000000123e-01 -1.583070000000000033e-01 2.629219999999999891e-01 1.194910000000000000e-01 -2.932549999999999879e-01 -8.149030000000000440e-01 4.656210000000000071e-01 -1.261839999999999906e-01 5.807400000000000340e-01 1.921150000000000080e-01 -1.796860000000000124e-01 4.845399999999999707e-02 7.390349999999999975e-01 -8.910810000000000120e-01 1.062680000000000013e-01 -1.967609999999999915e-01 4.727999999999999980e-01 -4.104880000000000195e-01 -2.403019999999999878e-01 6.949340000000000517e-01 1.572649999999999881e-01 4.155449999999999977e-01 2.146500000000000144e-02 3.597099999999999742e-01 -1.523359999999999992e-01 1.902399999999999924e-02 -2.169290000000000107e-01 -2.503429999999999822e-01 -2.728570000000000162e-01 1.338199999999999980e-02 -2.189530000000000087e-01 -4.359199999999999880e-02 -5.082149999999999723e-01 -1.235549999999999982e-01 5.694620000000000237e-01 1.415180000000000049e-01 -3.131639999999999979e-01 -8.311799999999999744e-02 4.402519999999999767e-01 1.140280000000000044e-01 -5.387990000000000279e-01 3.282419999999999782e-01 -1.681020000000000014e-01 5.250899999999999457e-01 -1.652710000000000012e-01 -3.540499999999999897e-02 3.787800000000000195e-02 9.168300000000000061e-02 3.632719999999999838e-01 -3.697300000000000031e-01 6.166709999999999692e-01 -1.390160000000000007e-01 2.613400000000000098e-02 -3.392229999999999968e-01 -3.678599999999999925e-02 2.936150000000000149e-01 -4.252199999999999730e-02 2.407930000000000070e-01 6.901000000000000190e-02 -6.730570000000000164e-01 5.320699999999999735e-02 -3.497419999999999973e-01 1.519159999999999955e-01 -1.541599999999999915e-02 7.302500000000000657e-02 -6.584489999999999510e-01 -5.941899999999999959e-02 1.267099999999999997e-02 -9.510599999999999610e-02 -1.593120000000000092e-01 3.161840000000000206e-01 -1.896760000000000113e-01
9.008469999999999533e-01 1.041517000000000026e+00 2.419042000000000137e+00 -2.137007999999999797e+00 -2.027190000000000047e+00 7.243540000000000534e-01 5.991999999999999549e-01 -1.991805000000000048e+00 -2.000420999999999783e+00 2.370909999999999962e-01 5.365640000000000409e-01 -1.000509000000000093e+00 -1.220282000000000089e+00 2.021367999999999832e+00 1.728893999999999931e+00 9.333609999999999962e-01 1.167461000000000082e+00 1.612300000000000066e+00 2.051458999999999921e+00 1.676819999999999977e-01 -4.171810000000000240e-01 1.487786999999999971e+00 1.905717000000000105e+00 -4.164619999999999989e-01 -1.415772999999999948e+00 -9.371000000000000441e-01 1.468002000000000029e+00 6.175800000000000178e-01 -3.027710000000000123e-01 -4.178310000000000080e-01 -3.002067999999999959e+00 1.601758000000000015e+00 7.666520000000000001e-01 -7.334209999999999896e-01 1.325512999999999941e+00 -3.566730000000000178e-01 -9.054919999999999636e-01 5.446910000000000363e-01 -8.697899999999999521e-01 -1.159389999999999921e+00 -1.833789999999999865e-01 1.154400000000000044e-02 -1.325217000000000089e+00 1.701032000000000100e+00 -4.949270000000000058e-01 5.223119999999999985e-01 -1.070408999999999944e+00 6.111729999999999663e-01 3.279440000000000133e-01 -3.039484999999999992e+00 3.560800000000000076e-02 4.841600000000000070e-02 1.022669999999999968e-01 4.888710000000000000e-01 2.902710000000000012e-01 -1.171632999999999925e+00 5.563179999999999792e-01 3.396199999999999775e-01 -1.287166000000000032e+00 7.914080000000000004e-01 1.568146000000000040e+00 9.120570000000000066e-01 6.406929999999999570e-01 -8.271129999999999871e-01 -2.713600000000000040e-02 -1.312071999999999905e+00 3.377631000000000050e+00 6.691430000000000433e-01 4.907700000000000257e-02 -3.768210000000000170e-01 1.467727999999999922e+00 -5.976040000000000241e-01 -1.624821000000000071e+00 9.827540000000000164e-01 3.233960000000000168e-01 -2.701246999999999954e+00 -2.318999999999999950e-01 -1.906994000000000078e+00 1.083881000000000094e+00 -6.479479999999999684e-01 -1.939661000000000080e+00 1.551681000000000088e+00 -1.232404000000000055e+00 8.786000000000000407e-03 1.374311000000000060e+00 7.242459999999999454e-01 1.709835999999999911e+00 1.332130000000000036e+00 -2.501481000000000066e+00 -1.143636000000000097e+00 -1.215014000000000038e+00 -2.196889999999999954e-01 -1.072192999999999952e+00
-2.839260000000000117e-01 -4.464400000000000313e-02 -9.434700000000000031e-02 -1.937609999999999888e-01 -6.558829999999999938e-01 -9.024000000000000771e-03 1.076560000000000017e-01 1.542300000000000060e-01 2.476810000000000123e-01 6.128499999999999920e-02 2.730110000000000037e-01 6.590529999999999999e-01 -4.335089999999999777e-01 7.768100000000000005e-02 -4.909290000000000043e-01 -1.368399999999999998e-02 -4.486699999999999716e-02 -6.220799999999999941e-02 4.910820000000000185e-01 3.140519999999999978e-01 1.160159999999999941e-01 -3.902950000000000030e-01 -2.976809999999999734e-01 -4.924800000000000011e-02 -5.523700000000000276e-01 -1.991819999999999979e-01 -1.407200000000000117e-01 3.430770000000000208e-01 -5.193189999999999751e-01 4.618070000000000230e-01 2.098210000000000075e-01 1.426389999999999880e-01 -3.943800000000000083e-01 2.134790000000000021e-01 -5.449099999999999777e-02 -3.835740000000000260e-01 2.948080000000000145e-01 -3.337699999999999695e-02 3.147000000000000058e-03 1.976729999999999876e-01 2.776649999999999952e-01 1.811109999999999942e-01 3.233440000000000203e-01 -2.151329999999999909e-01 -1.085850000000000010e-01 -4.286849999999999827e-01 2.061489999999999989e-01 -1.227239999999999998e-01 9.750499999999999445e-02 2.591879999999999740e-01 2.270300000000000096e-02 -1.017180000000000029e-01 1.141419999999999935e-01 -2.266299999999999912e-02 -2.379809999999999981e-01 -1.804699999999999915e-01 -1.243299999999999961e-01 4.036310000000000175e-01 3.974570000000000047e-01 -1.555680000000000118e-01 -1.400400000000000082e-02 5.824589999999999490e-01 6.266730000000000356e-01 -2.838970000000000105e-01 -4.719000000000000278e-02 2.720000000000000195e-03 -1.913400000000000170e-02 -5.826839999999999797e-01 2.363480000000000025e-01 5.719330000000000247e-01 1.035100000000000048e-01 -1.456540000000000057e-01 -1.250159999999999882e-01 -1.152709999999999985e-01 -4.219080000000000052e-01 -6.049399999999999916e-02 -1.843619999999999981e-01 4.002620000000000067e-01 -9.449299999999999367e-02 -5.927400000000000030e-02 -5.154859999999999998e-01 -5.607100000000000278e-02 -1.208900000000000079e-02 -1.051789999999999947e-01 3.869940000000000047e-01 3.135330000000000061e-01 9.400000000000000022e-02 1.314450000000000063e-01 -2.410770000000000135e-01 3.609720000000000151e-01 -5.446940000000000115e-01 2.712769999999999904e-01 -6.596699999999999786e-02
1.227150000000000046e-01 1.759061999999999903e+00 8.481700000000000350e-02 -3.392510000000000248e-01 6.679619999999999447e-01 8.096090000000000231e-01 -9.469130000000000047e-01 -8.313230000000000341e-01 -1.511185999999999918e+00 3.180799999999999739e-01 -9.932889999999999775e-01 -2.323548000000000169e+00 8.964419999999999611e-01 -9.129059999999999953e-01 2.538540000000000241e-01 7.304819999999999647e-01 -2.275110999999999883e+00 -2.774100999999999928e+00 1.179672000000000054e+00 -6.857760000000000522e-01 1.352249999999999952e+00 2.279790999999999901e+00 1.453011000000000053e+00 -7.425779999999999603e-01 4.999230000000000063e-01 5.463980000000000503e-01 -1.630924999999999958e+00 5.340979999999999617e-01 -1.639400000000000024e-01 1.583611000000000102e+00 1.378249999999999975e+00 6.433729999999999727e-01 -1.299876000000000031e+00 8.143899999999999750e-02 5.374459999999999793e-01 8.106250000000000400e-01 1.184976999999999947e+00 -6.301879999999999704e-01 -4.656250000000000111e-01 1.116781000000000024e+00 9.819809999999999928e-01 2.312063999999999897e+00 3.819930000000000270e-01 1.204910000000000009e-01 1.874399999999999955e-01 -1.430641000000000052e+00 -1.285435000000000105e+00 -2.619170000000000109e-01 -1.150450999999999890e+00 -9.857409999999999783e-01 1.401250000000000107e+00 -1.032778999999999892e+00 2.547789999999999777e-01 -5.856459999999999999e-01 -2.969879999999999742e-01 -1.129923999999999928e+00 1.823679999999999968e+00 -5.174769999999999648e-01 -1.972231999999999985e+00 1.051347999999999949e+00 -1.346459999999999879e-01 1.910600000000000145e-02 1.091659999999999991e-01 -1.030947999999999976e+00 -4.335979999999999834e-01 -3.976910000000000167e-01 -1.069917000000000007e+00 2.806460000000000066e-01 -6.731610000000000094e-01 4.483779999999999988e-01 -2.993120000000000225e-01 1.151475000000000026e+00 -8.689500000000000002e-02 1.351523999999999948e+00 -9.431220000000000159e-01 4.534850000000000270e-01 2.163509999999999878e-01 1.141570999999999891e+00 2.234579999999999900e-01 -7.065069999999999961e-01 -1.426128999999999980e+00 -1.485711000000000004e+00 1.865556999999999910e+00 1.017325000000000035e+00 -3.565399999999999819e-02 8.731149999999999745e-01 -2.119883999999999880e+00 -1.724142999999999981e+00 1.721411000000000024e+00 2.318271000000000193e+00 -5.475539999999999852e-01 1.306799999999999976e-02 -2.529689999999999994e-01
5.662350000000000438e-01 -2.310730000000000006e-01 -5.140059999999999629e-01 -2.976090000000000124e-01 3.090789999999999926e-01 -2.678320000000000145e-01 -8.984699999999999631e-02 -8.510459999999999692e-01 1.447321999999999997e+00 -1.483197000000000099e+00 -4.686119999999999730e-01 9.281799999999999773e-02 1.632854000000000028e+00 -2.081620000000000137e-01 -5.625379999999999825e-01 -5.430300000000000127e-01 -1.229497999999999980e+00 -1.425232000000000054e+00 -1.051584999999999992e+00 -1.365218000000000043e+00 -6.825609999999999733e-01 2.063677999999999901e+00 1.625437000000000021e+00 -1.690212999999999965e+00 -1.096672000000000091e+00 6.428570000000000118e-01 -1.395780999999999938e+00 1.084452999999999889e+00 1.326886000000000010e+00 2.156118999999999897e+00 1.176400000000000015e-02 -1.429173999999999944e+00 1.640840000000000076e-01 3.837189999999999768e-01 -1.228353000000000028e+00 -1.386128000000000027e+00 -8.919310000000000294e-01 5.124610000000000554e-01 1.290634000000000059e+00 3.606110000000000149e-01 4.774990000000000068e-01 -8.888690000000000202e-01 -2.801870000000000194e-01 -9.997730000000000228e-01 -6.562230000000000008e-01 -1.102930000000000021e-01 -1.155739999999999962e-01 2.814440000000000275e-01 1.004715999999999942e+00 -1.081741999999999981e+00 1.238348000000000004e+00 4.784720000000000084e-01 1.604569999999999885e-01 -4.266260000000000052e-01 -4.730300000000000060e-01 6.651280000000000525e-01 6.756429999999999936e-01 -3.534314999999999873e+00 -1.762499999999999956e+00 8.755319999999999769e-01 3.784239999999999826e-01 1.691130000000000022e+00 7.792080000000000117e-01 -2.107518999999999920e+00 1.671310000000000018e-01 1.177348000000000061e+00 1.304823000000000066e+00 4.460600000000000120e-01 2.844369999999999954e-01 -3.883840000000000070e-01 5.505830000000000446e-01 -1.988860000000000072e-01 1.899379999999999957e-01 -6.399449999999999861e-01 3.552699999999999747e-01 1.605042999999999997e+00 5.288749999999999840e-01 1.199997999999999898e+00 1.557101000000000068e+00 -2.244619999999999949e-01 -1.345013000000000014e+00 -1.006658999999999970e+00 8.041390000000000482e-01 -9.515489999999999782e-01 1.182182999999999984e+00 1.235096999999999889e+00 5.183130000000000237e-01 -7.866180000000000394e-01 5.451259999999999994e-01 -6.045390000000000486e-01 3.368599999999999928e-01 1.471870000000000123e-01 4.594770000000000243e-01
1.278469999999999884e-01 8.204289999999999639e-01 1.331725000000000048e+00 5.858959999999999724e-01 1.907586000000000004e+00 7.962569999999999926e-01 -8.406420000000000003e-01 -5.207129999999999814e-01 -8.425570000000000004e-01 -2.455049999999999955e+00 -3.359170999999999907e+00 -1.663802000000000003e+00 9.165500000000000036e-02 1.583555000000000046e+00 4.501603000000000243e+00 1.257146000000000097e+00 -1.024175999999999975e+00 -5.043729999999999603e-01 -2.281870000000000009e-01 6.290200000000000236e-01 4.359958999999999918e+00 3.501800000000000052e-02 8.905610000000000470e-01 -1.317666000000000004e+00 1.237112999999999907e+00 -2.741680000000000228e-01 3.452330000000000121e-01 2.093656000000000184e+00 -2.205700000000000022e-02 2.969698000000000171e+00 3.810689999999999911e-01 -7.722700000000000120e-01 1.329075999999999924e+00 1.037946000000000035e+00 -1.121349999999999986e-01 -3.532600000000000323e-02 -1.090311000000000030e+00 -7.924700000000000077e-01 -1.158530000000000060e+00 1.779144999999999976e+00 -2.124626999999999821e+00 4.041730000000000045e-01 1.522232000000000030e+00 2.048573000000000199e+00 -1.173159999999999981e+00 -1.817091999999999929e+00 3.285486999999999824e+00 2.303540000000000032e-01 -2.162085999999999952e+00 -1.605819000000000107e+00 -1.837110000000000132e-01 2.471800000000000108e-01 -2.688687999999999967e+00 -6.017209999999999503e-01 -2.100022000000000055e+00 -5.202579999999999982e-01 -1.361108999999999902e+00 -3.587230000000000141e-01 1.891717000000000093e+00 -3.193656999999999968e+00 1.762599000000000027e+00 -1.284547000000000105e+00 2.934939999999999771e-01 -2.366928999999999839e+00 -7.389179999999999637e-01 3.365239999999999898e-01 1.350122999999999962e+00 3.566555999999999838e+00 -2.671956999999999915e+00 -8.512549999999999839e-01 -1.889399999999999968e-01 -2.205779999999999963e-01 -7.797230000000000549e-01 -1.054349999999999898e+00 1.064170999999999978e+00 -6.062100000000000266e-01 -8.249990000000000379e-01 1.301242999999999927e+00 -8.245149999999999979e-01 -6.549530000000000074e-01 -4.872777000000000136e+00 1.468588999999999922e+00 5.902199999999999808e-02 4.734829999999999872e-01 9.932039999999999758e-01 -3.576239999999999974e-01 -6.736450000000000493e-01 -2.032249999999999890e+00 8.919019999999999726e-01 1.476518999999999915e+00 2.542577000000000087e+00 1.346475000000000088e+00 -7.389430000000000165e-01