6.187206773999999854e+00 0.000000000000000000e+00 0.000000000000000000e+00 -1.574690817000000020e+00 8.244021744999999513e+00 0.000000000000000000e+00 -1.502088773000000099e+00 2.711644421999999999e+00 7.761115807000000366e+00
6.219581600999999793e+00 0.000000000000000000e+00 0.000000000000000000e+00 -1.621907769999999971e+00 8.040508200999999744e+00 0.000000000000000000e+00 -1.616211822999999992e+00 2.654877894000000182e+00 7.638283678999999715e+00
6.280075093999999858e+00 0.000000000000000000e+00 0.000000000000000000e+00 -1.639891624999999964e+00 8.206063738999999302e+00 0.000000000000000000e+00 -1.517062455999999893e+00 2.727553320999999809e+00 7.831454978000000011e+00
6.222122706999999586e+00 0.000000000000000000e+00 0.000000000000000000e+00 -1.537470673999999926e+00 8.070846902999999628e+00 0.000000000000000000e+00 -1.632199930000000077e+00 2.700650280000000070e+00 7.576159856000000303e+00
6.126134451000000425e+00 0.000000000000000000e+00 0.000000000000000000e+00 -1.572802892999999980e+00 8.015290067000000462e+00 0.000000000000000000e+00 -1.493432298999999963e+00 2.769497466999999880e+00 7.597669910999999665e+00
6.313838888000000260e+00 0.000000000000000000e+00 0.000000000000000000e+00 -1.661903743999999961e+00 8.272215506000000218e+00 0.000000000000000000e+00 -1.587905581000000010e+00 2.775240467999999794e+00 7.712968293000000308e+00
6.217550038999999806e+00 0.000000000000000000e+00 0.000000000000000000e+00 -1.749098019000000059e+00 8.143761636000000692e+00 0.000000000000000000e+00 -1.491417109999999990e+00 2.730536750000000179e+00 7.783985732999999740e+00
6.292124882000000419e+00 0.000000000000000000e+00 0.000000000000000000e+00 -1.583970461999999912e+00 8.049738899999999475e+00 0.000000000000000000e+00 -1.612119781000000085e+00 2.677443246999999804e+00 7.592638947000000194e+00
6.220980220000000394e+00 0.000000000000000000e+00 0.000000000000000000e+00 -1.559959381000000089e+00 8.087604312999999934e+00 0.000000000000000000e+00 -1.553015172000000055e+00 2.659342731000000182e+00 7.633589715000000275e+00
6.218212449000000142e+00 0.000000000000000000e+00 0.000000000000000000e+00 -1.542877504000000011e+00 8.081852785000000594e+00 0.000000000000000000e+00 -1.551271850000000008e+00 2.658014434000000037e+00 7.645748733999999658e+00
6.249547567999999664e+00 0.000000000000000000e+00 0.000000000000000000e+00 -1.578152304000000061e+00 8.095312650000000332e+00 0.000000000000000000e+00 -1.558994194000000055e+00 2.675174939999999779e+00 7.634600826999999867e+00
6.235144939999999636e+00 0.000000000000000000e+00 0.000000000000000000e+00 -1.553768355000000101e+00 8.113822944000000703e+00 0.000000000000000000e+00 -1.552923590000000020e+00 2.671811125000000064e+00 7.648923918000000377e+00
6.254907654000000150e+00 0.000000000000000000e+00 0.000000000000000000e+00 -1.546199660999999947e+00 8.119096626999999344e+00 0.000000000000000000e+00 -1.536123281999999923e+00 2.682978826999999900e+00 7.669774596999999972e+00
6.178542676000000178e+00 0.000000000000000000e+00 0.000000000000000000e+00 -1.532825563999999918e+00 8.026728291999999598e+00 0.000000000000000000e+00 -1.518552453000000080e+00 2.683427866000000162e+00 7.586556789000000300e+00
6.215658443999999783e+00 0.000000000000000000e+00 0.000000000000000000e+00 -1.535445050000000089e+00 8.038971738000000755e+00 0.000000000000000000e+00 -1.606773373000000005e+00 2.688502731999999895e+00 7.595616189000000240e+00
6.093333870000000374e+00 0.000000000000000000e+00 0.000000000000000000e+00 -1.619590043999999951e+00 7.939316222999999617e+00 0.000000000000000000e+00 -1.436736161000000012e+00 2.640386433000000199e+00 7.603292834000000333e+00
6.264964511999999708e+00 0.000000000000000000e+00 0.000000000000000000e+00 -1.524821524000000039e+00 8.236727020000000010e+00 0.000000000000000000e+00 -1.557349066000000004e+00 2.749346119999999782e+00 7.745136763999999729e+00
6.152433785999999571e+00 0.000000000000000000e+00 0.000000000000000000e+00 -1.592570432999999896e+00 8.160618966999999557e+00 0.000000000000000000e+00 -1.493232947999999949e+00 2.702264619000000145e+00 7.705383395000000135e+00
6.234916236000000112e+00 0.000000000000000000e+00 0.000000000000000000e+00 -1.567923055999999926e+00 8.049803831000000187e+00 0.000000000000000000e+00 -1.581847019000000021e+00 2.635998009000000142e+00 7.594679990000000380e+00
6.227838878000000022e+00 0.000000000000000000e+00 0.000000000000000000e+00 -1.535485626000000048e+00 8.093150380999999172e+00 0.000000000000000000e+00 -1.482382641999999917e+00 2.635830197999999847e+00 7.614154333000000108e+00
6.191266394000000339e+00 0.000000000000000000e+00 0.000000000000000000e+00 -1.547981615000000089e+00 8.103118866999999170e+00 0.000000000000000000e+00 -1.524204748999999914e+00 2.623661538999999987e+00 7.590154606999999665e+00
6.357494763000000049e+00 0.000000000000000000e+00 0.000000000000000000e+00 -1.563414145000000088e+00 8.274447965000000238e+00 0.000000000000000000e+00 -1.623272276000000014e+00 2.720545629000000076e+00 7.691614206999999759e+00
6.337941920999999645e+00 0.000000000000000000e+00 0.000000000000000000e+00 -1.671100570999999979e+00 8.349763086999999473e+00 0.000000000000000000e+00 -1.572096268999999991e+00 2.807118430000000053e+00 7.891479183999999591e+00
6.238999879999999720e+00 0.000000000000000000e+00 0.000000000000000000e+00 -1.465090620000000010e+00 8.037518409000000474e+00 0.000000000000000000e+00 -1.532909391000000010e+00 2.653130607000000030e+00 7.637895956999999569e+00
6.382859189999999572e+00 0.000000000000000000e+00 0.000000000000000000e+00 -1.758698813999999944e+00 8.343742694999999543e+00 0.000000000000000000e+00 -1.563255325999999945e+00 2.799465033999999797e+00 7.817359796999999944e+00
6.245967686000000185e+00 0.000000000000000000e+00 0.000000000000000000e+00 -1.575918546000000031e+00 8.098907241999999229e+00 0.000000000000000000e+00 -1.562921975999999935e+00 2.688924714000000105e+00 7.620621015000000220e+00
6.299830400000000274e+00 0.000000000000000000e+00 0.000000000000000000e+00 -1.707388286000000033e+00 8.135517717999999121e+00 0.000000000000000000e+00 -1.455263661000000042e+00 2.845496638000000189e+00 7.684378019999999587e+00
6.210040453999999599e+00 0.000000000000000000e+00 0.000000000000000000e+00 -1.561451437000000109e+00 8.108421434000000261e+00 0.000000000000000000e+00 -1.503522156000000054e+00 2.567880082999999924e+00 7.649030587999999575e+00
6.216625899000000288e+00 0.000000000000000000e+00 0.000000000000000000e+00 -1.611529932999999915e+00 8.073587360999999518e+00 0.000000000000000000e+00 -1.640393385999999953e+00 2.632533141000000132e+00 7.657489723000000303e+00
6.254201650999999806e+00 0.000000000000000000e+00 0.000000000000000000e+00 -1.548253144000000026e+00 8.093484251999999657e+00 0.000000000000000000e+00 -1.566113008000000084e+00 2.651632092999999912e+00 7.657758918999999942e+00
6.388798367999999783e+00 0.000000000000000000e+00 0.000000000000000000e+00 -1.808423365999999977e+00 8.243094095000000010e+00 0.000000000000000000e+00 -1.689102134999999949e+00 2.834308245999999976e+00 7.761565775000000222e+00
6.245335748999999659e+00 0.000000000000000000e+00 0.000000000000000000e+00 -1.515568126000000015e+00 8.116446490999999597e+00 0.000000000000000000e+00 -1.594270858000000013e+00 2.652728831000000120e+00 7.631820927999999782e+00
6.228296315999999777e+00 0.000000000000000000e+00 0.000000000000000000e+00 -1.538605451000000013e+00 8.098732418000000877e+00 0.000000000000000000e+00 -1.568422315000000067e+00 2.707915433000000149e+00 7.644696614999999973e+00
6.227375668999999725e+00 0.000000000000000000e+00 0.000000000000000000e+00 -1.762684503000000014e+00 8.122365323000000359e+00 0.000000000000000000e+00 -1.639541592999999908e+00 2.787185339000000095e+00 7.594864559000000348e+00
6.240523372000000180e+00 0.000000000000000000e+00 0.000000000000000000e+00 -1.515830165999999979e+00 8.082135875000000524e+00 0.000000000000000000e+00 -1.565411343999999927e+00 2.683400176000000137e+00 7.655676191999999602e+00
6.224305343000000157e+00 0.000000000000000000e+00 0.000000000000000000e+00 -1.551243963999999975e+00 8.086269742000000704e+00 0.000000000000000000e+00 -1.563257624000000012e+00 2.702222314000000125e+00 7.631352072000000319e+00
6.264532652999999840e+00 0.000000000000000000e+00 0.000000000000000000e+00 -1.478923933999999996e+00 8.257560671000000241e+00 0.000000000000000000e+00 -1.518682630000000033e+00 2.781150570999999960e+00 7.736465929999999602e+00
6.216796745999999985e+00 0.000000000000000000e+00 0.000000000000000000e+00 -1.807580382000000041e+00 8.116193402000000390e+00 0.000000000000000000e+00 -1.360259085000000034e+00 2.779814185000000215e+00 7.667477972999999558e+00
6.174790414000000283e+00 0.000000000000000000e+00 0.000000000000000000e+00 4.622768879999999747e+00 8.036504807000000028e+00 0.000000000000000000e+00 4.627119597000000084e+00 2.679918552000000176e+00 7.575961689999999749e+00
6.087986393999999635e+00 0.000000000000000000e+00 0.000000000000000000e+00 -1.678957027999999907e+00 8.018172901999999880e+00 0.000000000000000000e+00 -1.458160260000000097e+00 2.694624858000000067e+00 7.629861842000000394e+00
6.202329530000000091e+00 0.000000000000000000e+00 0.000000000000000000e+00 -1.545099532999999914e+00 8.056462821000000218e+00 0.000000000000000000e+00 -1.536838893999999955e+00 2.691101748999999987e+00 7.620539082999999714e+00
6.337373179000000079e+00 0.000000000000000000e+00 0.000000000000000000e+00 -1.603334773000000046e+00 8.226907393999999485e+00 0.000000000000000000e+00 -1.668155661999999984e+00 2.743275291999999865e+00 7.758114450999999967e+00
6.147185000000000343e+00 0.000000000000000000e+00 0.000000000000000000e+00 4.610388999999999626e+00 7.985426999999999609e+00 0.000000000000000000e+00 4.610388999999999626e+00 2.661808999999999870e+00 7.528732999999999898e+00
6.245979808999999605e+00 0.000000000000000000e+00 0.000000000000000000e+00 -1.546048075000000077e+00 8.165594798000000765e+00 0.000000000000000000e+00 -1.521025897999999987e+00 2.716288457000000101e+00 7.636133060999999778e+00
6.146682440000000192e+00 0.000000000000000000e+00 0.000000000000000000e+00 -1.533342753999999974e+00 8.070151054000000101e+00 0.000000000000000000e+00 -1.512593588000000100e+00 2.559735337000000222e+00 7.586495196000000441e+00
6.230009748999999708e+00 0.000000000000000000e+00 0.000000000000000000e+00 -1.595853556000000006e+00 8.086527342000000118e+00 0.000000000000000000e+00 -1.559407245999999914e+00 2.651916326999999907e+00 7.622723698999999797e+00
6.238241336999999831e+00 0.000000000000000000e+00 0.000000000000000000e+00 -1.615230527000000027e+00 8.270161187999999441e+00 0.000000000000000000e+00 -1.591469580999999911e+00 2.754417997000000007e+00 7.782678763999999916e+00
6.211437534999999954e+00 0.000000000000000000e+00 0.000000000000000000e+00 -1.520533651999999902e+00 8.061240284000000145e+00 0.000000000000000000e+00 -1.571211981000000035e+00 2.681481172999999885e+00 7.618058286000000123e+00
6.381395427000000176e+00 0.000000000000000000e+00 0.000000000000000000e+00 -1.604746723000000097e+00 8.250042240000000859e+00 0.000000000000000000e+00 -1.387375212000000024e+00 2.867427560999999958e+00 7.890972600999999642e+00
6.199015604000000401e+00 0.000000000000000000e+00 0.000000000000000000e+00 -1.499083222000000104e+00 8.084600704999999721e+00 0.000000000000000000e+00 -1.533935623000000081e+00 2.628557364999999812e+00 7.695075758999999849e+00
