1.545819999999999972e+00 7.818599999999999994e-01 3.470040000000000013e+00 1.563209999999999988e+00 9.094999999999999751e-01 8.528710000000000235e+00 6.114700000000000024e+00 3.535229999999999873e+00 3.336059999999999803e+00 6.270179999999999865e+00 3.794049999999999923e+00 8.558469999999999800e+00 4.680950000000000166e+00 6.217060000000000031e+00 3.291389999999999816e+00 4.567479999999999762e+00 6.313010000000000232e+00 8.398009999999999309e+00 4.561989999999999768e+00 8.644600000000000062e-01 3.367589999999999861e+00 4.598919999999999675e+00 1.002040000000000042e+00 8.425269999999999371e+00 3.101859999999999840e+00 3.539079999999999782e+00 3.440459999999999852e+00 3.149919999999999831e+00 3.538139999999999841e+00 8.454439999999999955e+00 1.525679999999999925e+00 6.214500000000000135e+00 3.333410000000000206e+00 1.391550000000000065e+00 6.258539999999999992e+00 8.338050000000000850e+00 6.187969999999999970e+00 1.719929999999999959e+00 9.408999999999999586e-01 6.364620000000000388e+00 1.876100000000000101e+00 6.034720000000000084e+00 4.736309999999999576e+00 4.501109999999999722e+00 8.275000000000000133e-01 4.634269999999999889e+00 4.404729999999999812e+00 5.869040000000000035e+00 3.125269999999999992e+00 7.104390000000000427e+00 8.147400000000000198e-01 3.420889999999999986e+00 7.426739999999999675e+00 5.963759999999999728e+00 3.277130000000000098e+00 1.796850000000000058e+00 9.346299999999999608e-01 3.090759999999999952e+00 1.602260000000000018e+00 5.871859999999999857e+00 1.594379999999999908e+00 4.470819999999999794e+00 8.678799999999999848e-01 1.616109999999999935e+00 4.586299999999999599e+00 5.771889999999999965e+00 6.188080000000000247e+00 7.118629999999999569e+00 8.349699999999999900e-01 6.218029999999999724e+00 7.208289999999999864e+00 5.867090000000000138e+00 1.503139999999999921e+00 7.521099999999999453e-01 1.633429999999999938e+00 1.761050000000000004e+00 1.161440000000000028e+00 6.652050000000000018e+00 6.167650000000000077e+00 3.592950000000000088e+00 1.376160000000000050e+00 6.229849999999999888e+00 3.706319999999999837e+00 6.582239999999999647e+00 4.705189999999999984e+00 6.258469999999999978e+00 1.552519999999999900e+00 4.665060000000000429e+00 6.261149999999999771e+00 6.541730000000000267e+00 4.697359999999999758e+00 7.238099999999999534e-01 1.532729999999999926e+00 4.742110000000000269e+00 1.053860000000000019e+00 6.687240000000000073e+00 3.066739999999999799e+00 3.515820000000000167e+00 1.645359999999999934e+00 3.189169999999999838e+00 3.526879999999999793e+00 6.339120000000000310e+00 1.599909999999999943e+00 6.354630000000000223e+00 1.470310000000000006e+00 1.510049999999999892e+00 6.334800000000000431e+00 6.518729999999999691e+00 6.155249999999999666e+00 1.751169999999999893e+00 3.908020000000000049e+00 6.219289999999999985e+00 2.026940000000000186e+00 9.232039999999999580e+00 4.504489999999999661e+00 4.481639999999999624e+00 3.930750000000000188e+00 4.628280000000000172e+00 4.799450000000000216e+00 9.182150000000000034e+00 3.284780000000000033e+00 7.101009999999999600e+00 3.960160000000000124e+00 2.906719999999999970e+00 7.087740000000000151e+00 8.966189999999999216e+00 3.170020000000000060e+00 1.785600000000000076e+00 4.126219999999999999e+00 2.981329999999999814e+00 1.822040000000000104e+00 9.093109999999999360e+00 1.399529999999999941e+00 4.432669999999999888e+00 4.051660000000000039e+00 1.640379999999999949e+00 4.551160000000000316e+00 9.225619999999999266e+00 6.159869999999999735e+00 7.209869999999999557e+00 4.024200000000000443e+00 6.176499999999999879e+00 7.236790000000000056e+00 9.096769999999999357e+00
1.426099999999999923e+00 8.013299999999999867e-01 4.239150000000000418e+00 1.395289999999999919e+00 9.654800000000000049e-01 9.135899999999999466e+00 6.202399999999999913e+00 3.722780000000000200e+00 4.183860000000000134e+00 6.307769999999999655e+00 3.462709999999999955e+00 9.390420000000000655e+00 4.759059999999999846e+00 6.306670000000000442e+00 4.345509999999999984e+00 4.589109999999999800e+00 6.238610000000000433e+00 9.370400000000000063e+00 4.426820000000000199e+00 1.067960000000000020e+00 4.320389999999999731e+00 4.656039999999999957e+00 1.092759999999999954e+00 9.403330000000000410e+00 3.167089999999999961e+00 3.609570000000000167e+00 4.237119999999999997e+00 3.064090000000000202e+00 3.564239999999999853e+00 9.267830000000000013e+00 1.705480000000000107e+00 6.289439999999999920e+00 4.098040000000000127e+00 1.608409999999999895e+00 6.303600000000000314e+00 9.521459999999999368e+00 6.028669999999999973e+00 1.804149999999999920e+00 1.734089999999999909e+00 6.076760000000000161e+00 1.925559999999999938e+00 6.775730000000000253e+00 4.599610000000000198e+00 4.325669999999999682e+00 1.630179999999999962e+00 4.654829999999999579e+00 4.517929999999999779e+00 6.566589999999999705e+00 3.153389999999999915e+00 7.069309999999999761e+00 1.535330000000000084e+00 3.190879999999999939e+00 7.306540000000000035e+00 6.648119999999999585e+00 2.971099999999999852e+00 1.654060000000000086e+00 1.735319999999999974e+00 2.786919999999999842e+00 1.885229999999999961e+00 6.579539999999999722e+00 1.350060000000000038e+00 4.161509999999999820e+00 1.770610000000000017e+00 1.499030000000000085e+00 4.708540000000000170e+00 6.708079999999999821e+00 6.305810000000000137e+00 7.109939999999999927e+00 1.662469999999999892e+00 6.390259999999999607e+00 7.319110000000000227e+00 6.303410000000000402e+00 1.499519999999999964e+00 8.288200000000000012e-01 8.814100000000000268e-01 1.304179999999999895e+00 9.591699999999999671e-01 6.083459999999999646e+00 6.113620000000000054e+00 3.319650000000000212e+00 9.369800000000000351e-01 6.272330000000000183e+00 3.753049999999999997e+00 5.952980000000000160e+00 4.799809999999999910e+00 6.142970000000000041e+00 1.118610000000000104e+00 4.769669999999999632e+00 6.496679999999999566e+00 6.172480000000000189e+00 4.608010000000000161e+00 8.861099999999999532e-01 1.097099999999999964e+00 4.441539999999999822e+00 1.108130000000000059e+00 6.120599999999999596e+00 3.132649999999999935e+00 3.376040000000000152e+00 1.161769999999999969e+00 3.125779999999999781e+00 3.784920000000000062e+00 6.272179999999999644e+00 1.547080000000000011e+00 6.149989999999999846e+00 1.127059999999999951e+00 1.712250000000000050e+00 6.451719999999999899e+00 6.003499999999999837e+00 6.076139999999999652e+00 1.870549999999999935e+00 3.621560000000000112e+00 6.269529999999999603e+00 1.942879999999999940e+00 8.559380000000000877e+00 4.615540000000000198e+00 4.635200000000000209e+00 3.542850000000000055e+00 4.629839999999999733e+00 4.496129999999999960e+00 8.774910000000000210e+00 3.312650000000000095e+00 7.119259999999999700e+00 3.439160000000000217e+00 3.088410000000000100e+00 7.157049999999999912e+00 8.624390000000000001e+00 2.880560000000000009e+00 1.804200000000000026e+00 3.618100000000000094e+00 2.965469999999999828e+00 1.909019999999999939e+00 8.470359999999999445e+00 1.604000000000000092e+00 4.573249999999999815e+00 3.530339999999999812e+00 1.451650000000000107e+00 4.500009999999999621e+00 8.685249999999999915e+00 6.385629999999999917e+00 7.246950000000000003e+00 4.029889999999999972e+00 6.198050000000000281e+00 7.364849999999999675e+00 9.511939999999999173e+00
1.540629999999999944e+00 8.096799999999999553e-01 3.458369999999999944e+00 1.525640000000000107e+00 9.772600000000000176e-01 8.718780000000000641e+00 5.977210000000000356e+00 3.608830000000000204e+00 3.485059999999999825e+00 5.903760000000000119e+00 3.212880000000000180e+00 8.484080000000000510e+00 4.572339999999999627e+00 6.098830000000000418e+00 3.403989999999999849e+00 4.452230000000000132e+00 6.455549999999999677e+00 8.735549999999999926e+00 4.636230000000000295e+00 8.183899999999999508e-01 3.438279999999999781e+00 4.493019999999999570e+00 8.197799999999999532e-01 8.468920000000000670e+00 2.954120000000000079e+00 3.527979999999999894e+00 3.449339999999999851e+00 2.934520000000000017e+00 3.702020000000000088e+00 8.383050000000000779e+00 1.502389999999999892e+00 6.180970000000000297e+00 3.455330000000000013e+00 1.632160000000000055e+00 6.144009999999999749e+00 8.741699999999999804e+00 5.967060000000000031e+00 1.799719999999999986e+00 9.805899999999999617e-01 6.415849999999999831e+00 1.675769999999999982e+00 6.138829999999999565e+00 4.468099999999999739e+00 4.319289999999999630e+00 7.238900000000000334e-01 4.669159999999999755e+00 4.443970000000000198e+00 5.934709999999999930e+00 3.041339999999999932e+00 7.066440000000000055e+00 1.085090000000000110e+00 2.995989999999999931e+00 6.965589999999999726e+00 6.081260000000000332e+00 2.992290000000000116e+00 1.826940000000000008e+00 7.377899999999999459e-01 3.253919999999999924e+00 1.583590000000000053e+00 6.014120000000000132e+00 1.495090000000000030e+00 4.298129999999999562e+00 8.314899999999999514e-01 1.562859999999999916e+00 4.269949999999999690e+00 5.896370000000000111e+00 6.031859999999999999e+00 7.077320000000000277e+00 9.298100000000000254e-01 6.098840000000000039e+00 7.029080000000000439e+00 5.962439999999999962e+00 1.415370000000000017e+00 8.721999999999999753e-01 1.511360000000000037e+00 1.636949999999999905e+00 8.994999999999999662e-01 6.843689999999999607e+00 5.955560000000000187e+00 3.516490000000000116e+00 1.536249999999999893e+00 6.264499999999999957e+00 3.476980000000000182e+00 6.577880000000000393e+00 4.547710000000000363e+00 6.146530000000000271e+00 1.554089999999999971e+00 4.610219999999999985e+00 6.271550000000000402e+00 6.781869999999999621e+00 4.341750000000000220e+00 8.249400000000000066e-01 1.369979999999999976e+00 4.775470000000000326e+00 7.994799999999999685e-01 6.641329999999999956e+00 2.880939999999999834e+00 3.547750000000000181e+00 1.566449999999999898e+00 3.105939999999999923e+00 3.441710000000000047e+00 6.592279999999999696e+00 1.522350000000000092e+00 6.095690000000000275e+00 1.422660000000000036e+00 1.401459999999999928e+00 6.122840000000000060e+00 6.702650000000000219e+00 6.061259999999999870e+00 1.634370000000000100e+00 4.176050000000000040e+00 5.977229999999999599e+00 1.798669999999999991e+00 9.044520000000000337e+00 4.461330000000000240e+00 4.397689999999999877e+00 4.154029999999999667e+00 4.403389999999999915e+00 4.622419999999999973e+00 9.086430000000000007e+00 3.012849999999999806e+00 7.026900000000000368e+00 4.129859999999999864e+00 3.069420000000000037e+00 7.160490000000000244e+00 9.519130000000000535e+00 3.098040000000000127e+00 1.735030000000000072e+00 4.033109999999999751e+00 3.135190000000000143e+00 1.873739999999999961e+00 9.268190000000000595e+00 1.396530000000000049e+00 4.422270000000000145e+00 4.035459999999999603e+00 1.315090000000000092e+00 4.295550000000000423e+00 9.145220000000000127e+00 6.079150000000000276e+00 6.959419999999999717e+00 3.941190000000000193e+00 6.071670000000000122e+00 6.917550000000000310e+00 9.279980000000000118e+00
1.388560000000000016e+00 7.669300000000000006e-01 4.439949999999999619e+00 1.456569999999999920e+00 6.040400000000000214e-01 9.381140000000000256e+00 5.992029999999999745e+00 3.588960000000000150e+00 4.294529999999999959e+00 6.030549999999999855e+00 3.425650000000000084e+00 9.627929999999999211e+00 4.785739999999999661e+00 6.355669999999999931e+00 4.228049999999999642e+00 4.554210000000000313e+00 6.219450000000000145e+00 9.392030000000000101e+00 4.490809999999999746e+00 9.922999999999999599e-01 4.305460000000000065e+00 4.589500000000000135e+00 9.451899999999999746e-01 9.433460000000000178e+00 2.865219999999999878e+00 3.683209999999999873e+00 4.332469999999999821e+00 3.099950000000000205e+00 3.368180000000000174e+00 9.479039999999999466e+00 1.617070000000000007e+00 6.229510000000000325e+00 4.120120000000000005e+00 1.406819999999999959e+00 6.072720000000000340e+00 9.231980000000000075e+00 6.137430000000000163e+00 1.645070000000000032e+00 1.661710000000000020e+00 6.108220000000000205e+00 1.757020000000000026e+00 7.022219999999999906e+00 4.600480000000000125e+00 4.410739999999999661e+00 1.576319999999999943e+00 4.430399999999999672e+00 4.406690000000000218e+00 6.949279999999999902e+00 3.238329999999999931e+00 7.326600000000000001e+00 1.708210000000000006e+00 3.051829999999999821e+00 7.129520000000000302e+00 6.875280000000000058e+00 3.051280000000000214e+00 1.389140000000000041e+00 1.739489999999999981e+00 2.937910000000000021e+00 1.778119999999999923e+00 7.084719999999999906e+00 1.571369999999999933e+00 4.454530000000000101e+00 1.710790000000000033e+00 1.384900000000000020e+00 4.329200000000000159e+00 6.881140000000000256e+00 6.112040000000000362e+00 7.315929999999999822e+00 1.623420000000000085e+00 6.052529999999999966e+00 7.180889999999999773e+00 6.730970000000000120e+00 1.553800000000000070e+00 8.944400000000000128e-01 8.580400000000000249e-01 1.378479999999999928e+00 8.619200000000000195e-01 6.330259999999999998e+00 6.022319999999999673e+00 3.514269999999999783e+00 1.144300000000000095e+00 5.958339999999999748e+00 3.470450000000000035e+00 6.312929999999999708e+00 4.694919999999999760e+00 6.356320000000000192e+00 1.217100000000000071e+00 4.624749999999999694e+00 6.143539999999999779e+00 6.333680000000000199e+00 4.565690000000000026e+00 1.003619999999999957e+00 1.015689999999999982e+00 4.560380000000000322e+00 9.412800000000000056e-01 6.279250000000000220e+00 3.018139999999999823e+00 3.559489999999999821e+00 1.198360000000000092e+00 2.963309999999999889e+00 3.595610000000000195e+00 6.174430000000000085e+00 1.684779999999999944e+00 6.462720000000000020e+00 1.134339999999999904e+00 1.485000000000000098e+00 6.331360000000000099e+00 6.205610000000000070e+00 6.136239999999999917e+00 1.736620000000000053e+00 3.644080000000000208e+00 6.130790000000000184e+00 1.704090000000000105e+00 8.813029999999999475e+00 4.549419999999999575e+00 4.541050000000000253e+00 3.784409999999999830e+00 4.501739999999999853e+00 4.373289999999999900e+00 8.865569999999999951e+00 3.066279999999999895e+00 7.222080000000000055e+00 3.671570000000000000e+00 2.912049999999999805e+00 6.900999999999999801e+00 8.865429999999999922e+00 2.885380000000000056e+00 1.889299999999999979e+00 3.846260000000000012e+00 3.055400000000000116e+00 1.609680000000000000e+00 8.854950000000000543e+00 1.430080000000000018e+00 4.509039999999999715e+00 3.738129999999999953e+00 1.507309999999999928e+00 4.286349999999999660e+00 8.844260000000000232e+00 6.237940000000000040e+00 7.268510000000000026e+00 3.601579999999999782e+00 6.016510000000000247e+00 7.235009999999999941e+00 8.577479999999999549e+00
1.768019999999999925e+00 8.989500000000000268e-01 4.179190000000000182e+00 1.725090000000000012e+00 6.708499999999999464e-01 9.214510000000000645e+00 6.640859999999999985e+00 3.528220000000000134e+00 4.057360000000000078e+00 6.439989999999999881e+00 3.243320000000000203e+00 9.172069999999999723e+00 4.860540000000000305e+00 6.061350000000000016e+00 4.187070000000000292e+00 4.940949999999999953e+00 5.861119999999999663e+00 9.098629999999999995e+00 5.024320000000000341e+00 7.202800000000000313e-01 4.087620000000000253e+00 4.761180000000000412e+00 5.852500000000000480e-01 8.911339999999999151e+00 3.424960000000000004e+00 3.372829999999999995e+00 4.185130000000000017e+00 3.161910000000000220e+00 3.342089999999999783e+00 8.938620000000000232e+00 1.843369999999999953e+00 6.088079999999999714e+00 3.789390000000000036e+00 1.822610000000000063e+00 5.964299999999999713e+00 8.571590000000000487e+00 6.376990000000000158e+00 1.759460000000000024e+00 1.594989999999999908e+00 6.553749999999999964e+00 1.572650000000000103e+00 6.713840000000000252e+00 4.846429999999999794e+00 4.329130000000000145e+00 1.515479999999999938e+00 4.910739999999999661e+00 4.190129999999999910e+00 6.674540000000000362e+00 3.508360000000000145e+00 7.128370000000000317e+00 1.726820000000000022e+00 3.452399999999999913e+00 7.056020000000000181e+00 6.644289999999999807e+00 3.336450000000000138e+00 1.780780000000000030e+00 1.640339999999999909e+00 3.316609999999999836e+00 1.548629999999999951e+00 6.535269999999999690e+00 1.989049999999999985e+00 4.382950000000000124e+00 1.466099999999999959e+00 1.708860000000000046e+00 4.145819999999999617e+00 6.583630000000000315e+00 6.741920000000000357e+00 6.784530000000000172e+00 1.066249999999999920e+00 6.564289999999999736e+00 6.785370000000000346e+00 6.206459999999999866e+00 1.725340000000000096e+00 1.089660000000000073e+00 1.142169999999999908e+00 1.738250000000000073e+00 7.935699999999999976e-01 6.082220000000000404e+00 6.278120000000000367e+00 3.461259999999999781e+00 9.961100000000000509e-01 6.396959999999999980e+00 3.381720000000000059e+00 6.054020000000000401e+00 4.757340000000000124e+00 6.215029999999999610e+00 9.578200000000000047e-01 5.024779999999999802e+00 5.935080000000000133e+00 6.099649999999999572e+00 4.748120000000000118e+00 6.644900000000000251e-01 9.642699999999999605e-01 5.007229999999999848e+00 6.072100000000000275e-01 6.020830000000000126e+00 3.418899999999999828e+00 3.433300000000000018e+00 8.124200000000000310e-01 3.330490000000000173e+00 3.388370000000000104e+00 6.087699999999999889e+00 1.775239999999999929e+00 6.269040000000000390e+00 1.949019999999999975e+00 1.856190000000000007e+00 6.009240000000000137e+00 6.626649999999999707e+00 6.402689999999999770e+00 1.691570000000000018e+00 3.527579999999999938e+00 6.433349999999999902e+00 1.486639999999999961e+00 8.535629999999999384e+00 4.788840000000000430e+00 4.180649999999999977e+00 3.522879999999999789e+00 4.831599999999999895e+00 4.009909999999999641e+00 8.529019999999999158e+00 3.474320000000000075e+00 7.033850000000000158e+00 3.540680000000000049e+00 3.445980000000000043e+00 6.886580000000000368e+00 8.553940000000000765e+00 3.316629999999999967e+00 1.732329999999999925e+00 3.665379999999999860e+00 3.311539999999999928e+00 1.535870000000000068e+00 8.355109999999999815e+00 1.955430000000000001e+00 4.293370000000000353e+00 3.440259999999999874e+00 1.562619999999999898e+00 4.129990000000000272e+00 8.611639999999999517e+00 6.646040000000000170e+00 6.841059999999999697e+00 4.226609999999999978e+00 6.620680000000000121e+00 6.822589999999999932e+00 8.783920000000000172e+00
1.746550000000000047e+00 8.006299999999999528e-01 3.454159999999999897e+00 1.638099999999999890e+00 7.741700000000000248e-01 8.497930000000000206e+00 6.485669999999999824e+00 3.308959999999999901e+00 3.380329999999999835e+00 6.212119999999999642e+00 3.372360000000000024e+00 8.522180000000000533e+00 4.656509999999999927e+00 6.305240000000000400e+00 3.411830000000000140e+00 4.772000000000000242e+00 6.190900000000000070e+00 8.383710000000000662e+00 4.689770000000000216e+00 8.540900000000000158e-01 3.245429999999999815e+00 4.742499999999999716e+00 7.900599999999999845e-01 8.261820000000000164e+00 3.227149999999999963e+00 3.629999999999999893e+00 3.208709999999999951e+00 2.990559999999999885e+00 3.548869999999999969e+00 8.227180000000000604e+00 1.628069999999999906e+00 6.204720000000000013e+00 3.325590000000000046e+00 1.636779999999999902e+00 6.127620000000000289e+00 8.477169999999999206e+00 6.241979999999999862e+00 1.785190000000000055e+00 7.760599999999999721e-01 6.134579999999999700e+00 1.627850000000000019e+00 6.036400000000000432e+00 4.662049999999999805e+00 4.512780000000000236e+00 8.416599999999999637e-01 4.875530000000000364e+00 4.263110000000000177e+00 5.722139999999999560e+00 3.282059999999999977e+00 7.064960000000000129e+00 8.298299999999999566e-01 3.219520000000000159e+00 7.006140000000000256e+00 5.967679999999999652e+00 3.144420000000000215e+00 1.802219999999999933e+00 8.347799999999999665e-01 2.907659999999999911e+00 1.603569999999999940e+00 5.748260000000000147e+00 1.516389999999999905e+00 4.379489999999999661e+00 8.331399999999999917e-01 1.731430000000000025e+00 4.304499999999999993e+00 5.829430000000000334e+00 6.442610000000000170e+00 7.255869999999999820e+00 8.158999999999999586e-01 6.310170000000000279e+00 6.971059999999999590e+00 5.927640000000000242e+00 1.528990000000000071e+00 8.439499999999999780e-01 1.331690000000000040e+00 1.541199999999999903e+00 8.814499999999999558e-01 6.546409999999999840e+00 6.220640000000000391e+00 3.526940000000000186e+00 1.510590000000000099e+00 6.293590000000000018e+00 3.373369999999999980e+00 6.521740000000000315e+00 4.761059999999999626e+00 6.200910000000000366e+00 1.382679999999999909e+00 4.782469999999999999e+00 6.250899999999999679e+00 6.517520000000000202e+00 4.716000000000000192e+00 1.015719999999999956e+00 1.369189999999999907e+00 4.442470000000000141e+00 7.495600000000000041e-01 6.409889999999999866e+00 3.108779999999999877e+00 3.608589999999999964e+00 1.445030000000000037e+00 3.298620000000000108e+00 3.583509999999999973e+00 6.365850000000000009e+00 1.658020000000000049e+00 6.293370000000000353e+00 1.389210000000000056e+00 1.779600000000000071e+00 5.981230000000000047e+00 6.527949999999999697e+00 6.273869999999999614e+00 1.602060000000000040e+00 4.074410000000000309e+00 6.285709999999999908e+00 1.703440000000000065e+00 9.016730000000000800e+00 5.057010000000000005e+00 4.452969999999999651e+00 3.905149999999999899e+00 4.761730000000000018e+00 4.253680000000000128e+00 8.962260000000000559e+00 3.240190000000000126e+00 6.918070000000000164e+00 4.192870000000000097e+00 3.167790000000000106e+00 7.004400000000000404e+00 9.025650000000000617e+00 3.338159999999999794e+00 1.948269999999999946e+00 3.788769999999999971e+00 2.998940000000000161e+00 1.813390000000000057e+00 8.939429999999999765e+00 1.715260000000000007e+00 4.407449999999999868e+00 3.940679999999999961e+00 1.576980000000000048e+00 4.366179999999999950e+00 9.051249999999999574e+00 6.384529999999999816e+00 7.073310000000000208e+00 4.014059999999999739e+00 6.349280000000000257e+00 7.226180000000000270e+00 9.068020000000000636e+00
1.549539999999999917e+00 8.631900000000000128e-01 4.429610000000000269e+00 1.695100000000000051e+00 1.158190000000000053e+00 9.231920000000000570e+00 6.126649999999999707e+00 3.783749999999999947e+00 3.755850000000000133e+00 6.143150000000000333e+00 3.796670000000000211e+00 9.299910000000000565e+00 4.680329999999999657e+00 6.649779999999999802e+00 4.181020000000000181e+00 4.856950000000000323e+00 6.637850000000000250e+00 9.536459999999999937e+00 4.620090000000000252e+00 1.068359999999999976e+00 4.338040000000000340e+00 4.666479999999999961e+00 1.082670000000000021e+00 9.476029999999999731e+00 3.116190000000000015e+00 3.645540000000000003e+00 3.832530000000000214e+00 3.060369999999999813e+00 3.863049999999999873e+00 8.820019999999999527e+00 1.842200000000000060e+00 6.594529999999999781e+00 3.507769999999999833e+00 1.816680000000000073e+00 6.596650000000000347e+00 9.076650000000000773e+00 6.133939999999999948e+00 1.717910000000000048e+00 1.545199999999999907e+00 6.238480000000000025e+00 2.023639999999999883e+00 6.742869999999999919e+00 4.678079999999999572e+00 4.806879999999999598e+00 1.698679999999999968e+00 4.441379999999999661e+00 5.043149999999999800e+00 6.530300000000000438e+00 3.385959999999999859e+00 7.651860000000000106e+00 1.541940000000000088e+00 3.431329999999999991e+00 7.479289999999999772e+00 7.032580000000000275e+00 3.090609999999999857e+00 1.813120000000000065e+00 1.670560000000000045e+00 3.119990000000000041e+00 1.839739999999999931e+00 6.955300000000000260e+00 1.685019999999999962e+00 4.419929999999999914e+00 1.056230000000000002e+00 1.626419999999999977e+00 5.023109999999999964e+00 6.132520000000000415e+00 6.146390000000000242e+00 7.576789999999999914e+00 1.060089999999999977e+00 6.484569999999999723e+00 7.775970000000000049e+00 6.121340000000000003e+00 1.650279999999999969e+00 8.996100000000000207e-01 6.865099999999999536e-01 1.638139999999999930e+00 1.016799999999999926e+00 6.198479999999999990e+00 6.107370000000000410e+00 3.636979999999999880e+00 1.514329999999999954e+00 5.928659999999999819e+00 3.791560000000000041e+00 5.962880000000000180e+00 4.626839999999999620e+00 6.367440000000000211e+00 9.957799999999999985e-01 4.735330000000000261e+00 6.867070000000000007e+00 6.121159999999999712e+00 4.618629999999999569e+00 9.861999999999999655e-01 1.034550000000000081e+00 4.755110000000000170e+00 1.156250000000000000e+00 6.163680000000000270e+00 3.218480000000000008e+00 3.640779999999999905e+00 1.828850000000000087e+00 2.974530000000000118e+00 4.101499999999999702e+00 6.958590000000000053e+00 1.854009999999999936e+00 6.571850000000000414e+00 1.598659999999999970e+00 1.760920000000000041e+00 6.741699999999999804e+00 6.855780000000000207e+00 6.142719999999999736e+00 1.848240000000000105e+00 3.563070000000000181e+00 6.115879999999999761e+00 2.033249999999999780e+00 8.618570000000000064e+00 4.576900000000000190e+00 4.866660000000000430e+00 3.857320000000000082e+00 4.615569999999999951e+00 4.781310000000000393e+00 9.058820000000000761e+00 3.364240000000000119e+00 7.655300000000000438e+00 3.406050000000000022e+00 3.478689999999999838e+00 7.473040000000000127e+00 8.762470000000000425e+00 3.157480000000000064e+00 1.768799999999999928e+00 3.648219999999999796e+00 3.143489999999999895e+00 1.920760000000000023e+00 8.701090000000000657e+00 1.561569999999999903e+00 4.751979999999999649e+00 4.307280000000000442e+00 1.580529999999999990e+00 4.747620000000000395e+00 9.655519999999999214e+00 6.393080000000000318e+00 7.575479999999999769e+00 4.156839999999999868e+00 6.414030000000000342e+00 7.726589999999999847e+00 9.571920000000000428e+00
1.539740000000000109e+00 9.291500000000000314e-01 4.237359999999999793e+00 1.468320000000000070e+00 9.936500000000000332e-01 9.718959999999999155e+00 6.213580000000000325e+00 3.480370000000000186e+00 4.483170000000000321e+00 6.180180000000000007e+00 3.644050000000000011e+00 9.510970000000000368e+00 4.375259999999999927e+00 6.083680000000000199e+00 4.333569999999999922e+00 4.528880000000000017e+00 6.250619999999999621e+00 9.574429999999999552e+00 4.804269999999999818e+00 8.355299999999999949e-01 4.347959999999999603e+00 4.497790000000000177e+00 1.070510000000000073e+00 9.337690000000000268e+00 3.054339999999999833e+00 3.504379999999999828e+00 4.279440000000000133e+00 3.021430000000000060e+00 3.673239999999999839e+00 9.387529999999999930e+00 1.433370000000000033e+00 6.316250000000000142e+00 4.237930000000000419e+00 1.535840000000000094e+00 6.132719999999999949e+00 9.461880000000000734e+00 6.057299999999999685e+00 1.871329999999999938e+00 1.712040000000000006e+00 6.275299999999999656e+00 1.696129999999999916e+00 7.161340000000000039e+00 4.615630000000000344e+00 4.606359999999999566e+00 1.577809999999999935e+00 4.636180000000000412e+00 4.552959999999999674e+00 6.808010000000000339e+00 3.072239999999999860e+00 7.254789999999999850e+00 1.808249999999999913e+00 2.970200000000000173e+00 7.057610000000000383e+00 6.762679999999999580e+00 3.068160000000000220e+00 1.829120000000000079e+00 1.624500000000000055e+00 3.160429999999999851e+00 1.805630000000000068e+00 7.008560000000000123e+00 1.538880000000000026e+00 4.575260000000000105e+00 1.726140000000000008e+00 1.536810000000000009e+00 4.403669999999999973e+00 6.923420000000000130e+00 6.035560000000000258e+00 7.323859999999999815e+00 1.025369999999999893e+00 5.997880000000000322e+00 7.170539999999999914e+00 6.522289999999999921e+00 1.494860000000000078e+00 1.071469999999999922e+00 1.096940000000000026e+00 1.658360000000000056e+00 9.796000000000000263e-01 6.215069999999999872e+00 6.229090000000000238e+00 3.712289999999999868e+00 9.979799999999999782e-01 6.148039999999999949e+00 3.450489999999999835e+00 6.428309999999999746e+00 4.515789999999999971e+00 6.189169999999999838e+00 9.985199999999999632e-01 4.424310000000000187e+00 6.264789999999999637e+00 6.055640000000000356e+00 4.544950000000000045e+00 1.009390000000000009e+00 1.011980000000000102e+00 4.711640000000000050e+00 9.804199999999999582e-01 6.285350000000000215e+00 3.122949999999999893e+00 3.603270000000000195e+00 1.097399999999999931e+00 3.095279999999999809e+00 3.374010000000000176e+00 6.254719999999999835e+00 1.499900000000000011e+00 6.448859999999999815e+00 9.089599999999999902e-01 1.543800000000000061e+00 6.135779999999999568e+00 6.233189999999999564e+00 6.224359999999999893e+00 1.788270000000000026e+00 3.579950000000000188e+00 6.020749999999999602e+00 1.958869999999999889e+00 8.974700000000000344e+00 4.613269999999999982e+00 4.440439999999999721e+00 3.587439999999999962e+00 4.589279999999999582e+00 4.485759999999999970e+00 8.745979999999999421e+00 2.943839999999999790e+00 7.150590000000000224e+00 3.917569999999999997e+00 3.158739999999999881e+00 7.495079999999999742e+00 8.841620000000000701e+00 3.084439999999999849e+00 1.949600000000000000e+00 3.486509999999999998e+00 2.931989999999999874e+00 1.954760000000000053e+00 8.920930000000000248e+00 1.505819999999999936e+00 4.532210000000000072e+00 3.638679999999999914e+00 1.490189999999999904e+00 4.472199999999999953e+00 8.767369999999999663e+00 5.971630000000000216e+00 7.112949999999999662e+00 4.523749999999999716e+00 6.144829999999999792e+00 7.102599999999999802e+00 9.316019999999999968e+00