4.407930000000000348e+00 7.359469999999999956e+00 5.661000000000000060e-02 1.436078000000000010e+01 8.223860000000000170e+00 2.410950000000000149e+00 2.939849999999999852e+00 1.653029999999999999e+00 4.605430000000000135e+00 1.454949999999999966e+00 2.380040000000000155e+00 8.370000000000000703e-03 2.850760000000000183e+00 3.271669999999999856e+00 2.239860000000000184e+00 1.292688000000000059e+01 4.133880000000000443e+00 4.658870000000000289e+00 1.583057999999999943e+01 7.400100000000000122e+00 6.960679999999999978e+00 1.295767999999999986e+01 5.795840000000000103e+00 2.290459999999999940e+00 1.439728000000000030e+01 6.571170000000000400e+00 4.639199999999999768e+00 7.322610000000000063e+00 7.404740000000000322e+00 1.060999999999999964e-02 4.406010000000000204e+00 8.756199999999999539e-01 2.227009999999999934e+00 5.720329999999999693e+00 1.736509999999999998e+00 4.727750000000000341e+00 4.246690000000000076e+00 2.438480000000000203e+00 5.199999999999999544e-04 5.732689999999999841e+00 3.262859999999999872e+00 2.312240000000000073e+00 7.215309999999999668e+00 4.125040000000000262e+00 4.652610000000000134e+00 1.001703000000000010e+01 7.388889999999999958e+00 6.872749999999999915e+00 6.625860000000000305e+00 5.332150000000000389e+00 1.904630000000000045e+00 8.683719999999999217e+00 6.676050000000000040e+00 4.730100000000000193e+00 5.722369999999999735e+00 1.832999999999999907e-02 3.082999999999999977e-02 1.151008000000000031e+01 8.242660000000000764e+00 2.332710000000000061e+00 1.296808000000000050e+01 9.016980000000000217e+00 4.680299999999999905e+00 1.155767999999999951e+01 5.026659999999999684e+00 6.992849999999999788e+00 8.536770000000000636e+00 3.310400000000000009e+00 2.344030000000000058e+00 1.008948000000000000e+01 4.082279999999999909e+00 4.612639999999999851e+00 8.667120000000000601e+00 4.927500000000000213e+00 9.332999999999999630e-02 1.021748000000000012e+01 5.774560000000000137e+00 2.435119999999999951e+00 1.154198000000000057e+01 6.631129999999999747e+00 4.750029999999999752e+00 7.797920000000000407e+00 6.142809999999999881e+00 2.654570000000000096e+00 2.860799999999999788e+00 1.606440000000000090e+00 1.089609999999999967e+00 4.281769999999999854e+00 2.542660000000000142e+00 3.375119999999999898e+00 5.802950000000000053e+00 3.241760000000000197e+00 5.860529999999999795e+00 4.294859999999999900e+00 4.126829999999999998e+00 1.041819999999999968e+00 5.692470000000000141e+00 4.903380000000000294e+00 3.436100000000000154e+00 7.197750000000000092e+00 5.756599999999999717e+00 5.762480000000000047e+00 5.710200000000000387e+00 6.555869999999999642e+00 1.184579999999999966e+00 7.340670000000000250e+00 7.526559999999999917e+00 3.440259999999999874e+00 8.713139999999999219e+00 8.301439999999999486e+00 5.825739999999999696e+00 5.738520000000000287e+00 1.640360000000000040e+00 1.117650000000000032e+00 7.202910000000000146e+00 2.492280000000000051e+00 3.561570000000000125e+00 8.644859999999999545e+00 3.285439999999999916e+00 5.871870000000000367e+00 7.154189999999999827e+00 4.026019999999999932e+00 1.114530000000000021e+00 8.656579999999999941e+00 5.016670000000000407e+00 3.510240000000000027e+00 1.006028000000000056e+01 5.848440000000000083e+00 5.838359999999999772e+00 8.727510000000000545e+00 6.593049999999999855e+00 1.170949999999999935e+00 1.014457999999999949e+01 7.521639999999999660e+00 3.557840000000000114e+00 1.158698000000000050e+01 8.302469999999999573e+00 5.899099999999999788e+00 8.580049999999999955e+00 1.672549999999999981e+00 1.198069999999999968e+00 9.987940000000000040e+00 2.397590000000000110e+00 3.431919999999999860e+00 1.148987999999999943e+01 3.275180000000000202e+00 5.783800000000000274e+00 1.009678000000000075e+01 4.091289999999999871e+00 1.208339999999999970e+00 1.150708000000000020e+01 4.935100000000000264e+00 3.489240000000000119e+00 1.292287999999999926e+01 5.788870000000000182e+00 5.766549999999999621e+00 1.155508000000000024e+01 6.628639999999999866e+00 1.247190000000000021e+00 1.300028000000000006e+01 7.433150000000000368e+00 3.551759999999999806e+00 1.452608000000000033e+01 8.113429999999999254e+00 5.857099999999999973e+00
1.281656000000000084e+01 2.358229999999999826e+00 6.996719999999999828e+00 1.394830000000000014e+00 7.921899999999999498e-01 2.285480000000000178e+00 1.145686000000000071e+01 1.579180000000000028e+00 4.640170000000000350e+00 1.429275999999999947e+01 4.834900000000000198e+00 6.995529999999999582e+00 1.159936000000000078e+01 3.294820000000000082e+00 2.324460000000000193e+00 4.173250000000000348e+00 3.771650000000000169e+00 4.761479999999999713e+00 7.528800000000000381e+00 7.188519999999999577e+00 6.761350000000000193e+00 4.630560000000000009e+00 5.757039999999999935e+00 2.074660000000000171e+00 6.041439999999999699e+00 6.566880000000000273e+00 4.540429999999999744e+00 7.467459999999999987e+00 7.378300000000000303e+00 7.530000000000000235e-03 8.804700000000000415e+00 8.140560000000000684e+00 2.324730000000000185e+00 1.017084999999999972e+01 8.925119999999999720e+00 4.672060000000000102e+00 4.402379999999999960e+00 2.439589999999999925e+00 4.980000000000000052e-03 5.774770000000000181e+00 3.224479999999999791e+00 2.351830000000000087e+00 7.108740000000000059e+00 3.986969999999999903e+00 4.663710000000000022e+00 5.991010000000000169e+00 4.943209999999999660e+00 9.059999999999999998e-02 1.065165999999999968e+01 5.492989999999999817e+00 4.690400000000000125e-01 8.584369999999999834e+00 6.422119999999999607e+00 4.585250000000000270e+00 9.888379999999999725e+00 2.536080000000000112e+00 6.935559999999999725e+00 1.174395999999999951e+01 8.078409999999999869e+00 2.349200000000000177e+00 1.309866000000000064e+01 8.851440000000000197e+00 4.697949999999999626e+00 7.321349999999999802e+00 2.395199999999999996e+00 3.606999999999999790e-02 8.629490000000000549e+00 3.189869999999999983e+00 2.380230000000000068e+00 1.001103999999999949e+01 3.929279999999999884e+00 4.700380000000000003e+00 8.541169999999999263e+00 4.804780000000000051e+00 1.237300000000000066e-01 9.959120000000000417e+00 5.616019999999999790e+00 2.597309999999999786e+00 1.109165999999999919e+01 6.476950000000000429e+00 4.952160000000000117e+00 1.267896000000000001e+01 5.911950000000000038e+00 4.194740000000000357e+00 2.899550000000000072e+00 1.650879999999999903e+00 1.133129999999999971e+00 4.224059999999999704e+00 2.385870000000000157e+00 3.492700000000000138e+00 5.579679999999999751e+00 3.164390000000000036e+00 5.847310000000000230e+00 4.424890000000000434e+00 4.126629999999999576e+00 1.131459999999999910e+00 5.382570000000000299e+00 4.915280000000000094e+00 3.686570000000000125e+00 7.120730000000000004e+00 5.662239999999999718e+00 5.807269999999999932e+00 5.911279999999999646e+00 6.599169999999999980e+00 1.032810000000000006e+00 7.349129999999999718e+00 7.420270000000000366e+00 3.532890000000000086e+00 8.736489999999999867e+00 8.052830000000000155e+00 5.786410000000000053e+00 5.797010000000000218e+00 1.590700000000000003e+00 1.185799999999999965e+00 7.121050000000000324e+00 2.323010000000000019e+00 3.537080000000000002e+00 8.485620000000000829e+00 3.124350000000000183e+00 5.845290000000000319e+00 7.237770000000000259e+00 3.951769999999999783e+00 1.139450000000000074e+00 8.671780000000000044e+00 4.770699999999999719e+00 3.631749999999999812e+00 9.880819999999999936e+00 5.619209999999999816e+00 5.925469999999999793e+00 9.187839999999999563e+00 6.471619999999999706e+00 9.861499999999999710e-01 1.015666000000000047e+01 7.237860000000000404e+00 3.551550000000000207e+00 1.150426000000000037e+01 8.014739999999999753e+00 5.889470000000000205e+00 8.717200000000000060e+00 1.608549999999999924e+00 1.151960000000000095e+00 1.007051000000000052e+01 2.378670000000000062e+00 3.509879999999999889e+00 1.140986000000000011e+01 3.143679999999999808e+00 5.853309999999999569e+00 1.007705999999999946e+01 4.063200000000000145e+00 1.254869999999999930e+00 1.139715999999999951e+01 4.852089999999999570e+00 3.624049999999999994e+00 1.272746000000000066e+01 5.628700000000000259e+00 5.934929999999999595e+00 1.194305999999999912e+01 6.523769999999999847e+00 1.064840000000000009e+00 1.328096000000000032e+01 7.321740000000000137e+00 3.401400000000000201e+00 1.464795999999999943e+01 8.057620000000000005e+00 5.753700000000000259e+00
4.225609999999999644e+00 7.359829999999999650e+00 2.191999999999999851e-02 9.796070000000000277e+00 9.248600000000000154e-01 2.382019999999999804e+00 1.112237000000000009e+01 1.882339999999999902e+00 4.758680000000000021e+00 1.387367000000000061e+01 5.161030000000000229e+00 7.024560000000000137e+00 1.112987000000000037e+01 3.357000000000000206e+00 2.323139999999999983e+00 1.252896999999999927e+01 4.255899999999999572e+00 4.712110000000000021e+00 1.524567000000000050e+01 7.630659999999999776e+00 7.038499999999999979e+00 1.239427000000000056e+01 5.953190000000000204e+00 2.421870000000000189e+00 1.397006999999999977e+01 6.749979999999999869e+00 4.724099999999999966e+00 6.994460000000000122e+00 7.342399999999999594e+00 2.359999999999999945e-02 4.218140000000000001e+00 1.215170000000000083e+00 2.321009999999999796e+00 5.533290000000000042e+00 1.840049999999999963e+00 4.743290000000000006e+00 8.247780000000000555e+00 5.120180000000000398e+00 7.002340000000000231e+00 5.491900000000000226e+00 3.034889999999999866e+00 2.368829999999999991e+00 6.914600000000000080e+00 4.310920000000000307e+00 4.664450000000000429e+00 9.697549999999999670e+00 7.576889999999999681e+00 6.790280000000000094e+00 6.157729999999999926e+00 5.149670000000000414e+00 1.921699999999999964e+00 8.284829999999999472e+00 6.786170000000000258e+00 4.955589999999999939e+00 9.698760000000000048e+00 2.709630000000000205e+00 7.030549999999999855e+00 1.123197000000000045e+01 8.293760000000000687e+00 2.364720000000000155e+00 1.255657000000000068e+01 9.205349999999999255e+00 4.721610000000000085e+00 1.110816999999999943e+01 5.083580000000000432e+00 6.987479999999999691e+00 8.355259999999999465e+00 3.325820000000000221e+00 2.306070000000000064e+00 9.682230000000000558e+00 4.287420000000000009e+00 4.668899999999999828e+00 1.245866999999999969e+01 7.616179999999999950e+00 7.024820000000000064e+00 9.960900000000000531e+00 5.695700000000000429e+00 2.265660000000000007e+00 1.118136999999999937e+01 6.732649999999999579e+00 4.706859999999999822e+00 7.749039999999999928e+00 6.501089999999999591e+00 2.769480000000000164e+00 2.812710000000000043e+00 1.678560000000000052e+00 1.211629999999999985e+00 4.164520000000000444e+00 2.564700000000000202e+00 3.461059999999999803e+00 5.500709999999999766e+00 3.455979999999999830e+00 5.886820000000000164e+00 4.208540000000000170e+00 4.087189999999999657e+00 1.163680000000000048e+00 5.435139999999999638e+00 4.971680000000000099e+00 3.647990000000000066e+00 6.902510000000000367e+00 5.969829999999999970e+00 5.881700000000000372e+00 5.647459999999999702e+00 6.461899999999999977e+00 1.239470000000000072e+00 6.849610000000000198e+00 7.737250000000000405e+00 3.714240000000000208e+00 8.325179999999999580e+00 8.395479999999999166e+00 5.902590000000000003e+00 5.537469999999999892e+00 1.683980000000000032e+00 1.224320000000000075e+00 6.894490000000000229e+00 2.567829999999999835e+00 3.481329999999999814e+00 8.278079999999999217e+00 3.508010000000000073e+00 5.861060000000000159e+00 7.061600000000000321e+00 3.911810000000000009e+00 9.759400000000000297e-01 8.264160000000000394e+00 5.186519999999999797e+00 3.450740000000000141e+00 9.659340000000000259e+00 5.970780000000000420e+00 5.838000000000000078e+00 8.476679999999999993e+00 6.672250000000000014e+00 1.042640000000000011e+00 9.704679999999999751e+00 7.565540000000000376e+00 3.524649999999999839e+00 1.108286999999999978e+01 8.393190000000000595e+00 5.866469999999999629e+00 8.423959999999999226e+00 1.603860000000000063e+00 1.176970000000000072e+00 9.730380000000000251e+00 2.641910000000000203e+00 3.517440000000000122e+00 1.111326999999999998e+01 3.484490000000000087e+00 5.872460000000000235e+00 9.768079999999999430e+00 4.156979999999999897e+00 1.182080000000000020e+00 1.113347000000000087e+01 5.062599999999999767e+00 3.487239999999999895e+00 1.253276999999999930e+01 5.933309999999999640e+00 5.820479999999999876e+00 1.122137000000000029e+01 6.588560000000000194e+00 1.200039999999999996e+00 1.258807000000000009e+01 7.490230000000000388e+00 3.515350000000000197e+00 1.389486999999999917e+01 8.433030000000000470e+00 5.928469999999999906e+00
1.261297000000000068e+01 2.278239999999999821e+00 7.009850000000000136e+00 5.952539999999999942e+00 8.120789999999999509e+00 2.324279999999999902e+00 1.130427000000000071e+01 1.520969999999999933e+00 4.687070000000000292e+00 1.015867000000000075e+01 2.484199999999999964e+00 3.069999999999999812e-03 1.151346999999999987e+01 3.238669999999999938e+00 2.312940000000000218e+00 4.193699999999999761e+00 3.802789999999999893e+00 4.719829999999999970e+00 7.234239999999999782e+00 7.168429999999999858e+00 6.916430000000000078e+00 4.566860000000000142e+00 5.728690000000000282e+00 2.109129999999999949e+00 5.971860000000000390e+00 6.531460000000000043e+00 4.600030000000000285e+00 7.435740000000000016e+00 7.380670000000000286e+00 3.456000000000000044e-02 8.774520000000000763e+00 8.125809999999999533e+00 2.372889999999999944e+00 5.566950000000000287e+00 1.513549999999999951e+00 4.666170000000000151e+00 4.383790000000000298e+00 2.440630000000000077e+00 1.129999999999999928e-03 5.790949999999999598e+00 3.244870000000000143e+00 2.297670000000000101e+00 7.106880000000000308e+00 3.976410000000000000e+00 4.652339999999999698e+00 5.977299999999999613e+00 4.965539999999999843e+00 3.615000000000000158e-02 1.041686999999999941e+01 5.831439999999999735e+00 4.746199999999999863e-01 8.580429999999999779e+00 6.399720000000000297e+00 4.633390000000000342e+00 9.751640000000000086e+00 2.301109999999999989e+00 7.015010000000000190e+00 1.170016999999999996e+01 8.119790000000000063e+00 2.357369999999999965e+00 1.305667000000000044e+01 8.879680000000000462e+00 4.673420000000000130e+00 1.131947000000000081e+01 4.678379999999999761e+00 7.013130000000000308e+00 8.608560000000000656e+00 3.231939999999999813e+00 2.355500000000000149e+00 1.000808999999999926e+01 3.921289999999999942e+00 4.693170000000000286e+00 8.611319999999999197e+00 4.832019999999999982e+00 8.104000000000000092e-02 1.001065999999999967e+01 5.625960000000000072e+00 2.539870000000000072e+00 1.130336999999999925e+01 6.473010000000000375e+00 4.808600000000000207e+00 1.275136999999999965e+01 5.693469999999999587e+00 4.162069999999999936e+00 2.850950000000000095e+00 1.596470000000000056e+00 1.160369999999999902e+00 4.184580000000000410e+00 2.346189999999999998e+00 3.543200000000000127e+00 5.509229999999999627e+00 3.111369999999999969e+00 5.837460000000000093e+00 4.360009999999999941e+00 4.075370000000000381e+00 1.143960000000000088e+00 5.543160000000000309e+00 4.793470000000000120e+00 3.613220000000000098e+00 7.113069999999999560e+00 5.607850000000000001e+00 5.827749999999999986e+00 5.811849999999999739e+00 6.562750000000000306e+00 1.099110000000000031e+00 7.268270000000000231e+00 7.359040000000000248e+00 3.596369999999999845e+00 8.587759999999999394e+00 7.996830000000000105e+00 5.866439999999999877e+00 5.757970000000000255e+00 1.590319999999999956e+00 1.122619999999999951e+00 7.085329999999999906e+00 2.350309999999999899e+00 3.516869999999999941e+00 8.462220000000000297e+00 3.091759999999999842e+00 5.865590000000000082e+00 7.301800000000000068e+00 3.995810000000000084e+00 1.073539999999999939e+00 8.760730000000000572e+00 4.798809999999999576e+00 3.568890000000000118e+00 9.990009999999999835e+00 5.622589999999999755e+00 5.835060000000000358e+00 8.968329999999999913e+00 6.583000000000000185e+00 1.085229999999999917e+00 1.020946999999999960e+01 7.288979999999999571e+00 3.531439999999999912e+00 1.144976999999999911e+01 8.008100000000000662e+00 5.884669999999999845e+00 8.645519999999999428e+00 1.616120000000000001e+00 1.157419999999999893e+00 9.958339999999999748e+00 2.324310000000000098e+00 3.515470000000000095e+00 1.132797000000000054e+01 3.109649999999999803e+00 5.838470000000000049e+00 1.014527000000000001e+01 4.150890000000000413e+00 1.148300000000000098e+00 1.139616999999999969e+01 4.786789999999999878e+00 3.540989999999999860e+00 1.277876999999999974e+01 5.588409999999999656e+00 5.913000000000000256e+00 1.184787000000000035e+01 6.572750000000000092e+00 1.140379999999999949e+00 1.307296999999999976e+01 7.239639999999999631e+00 3.513440000000000119e+00 1.445946999999999960e+01 8.030960000000000321e+00 5.754100000000000215e+00
4.050580000000000069e+00 2.332059999999999800e+00 6.984119999999999884e+00 1.398590000000000000e+00 7.940199999999999481e-01 2.277229999999999865e+00 2.696979999999999933e+00 1.568049999999999944e+00 4.628849999999999909e+00 1.429946999999999946e+01 4.803160000000000096e+00 6.993890000000000384e+00 1.162437000000000076e+01 3.294090000000000185e+00 2.330270000000000064e+00 4.163199999999999790e+00 3.770960000000000090e+00 4.765369999999999884e+00 7.581089999999999662e+00 7.185260000000000424e+00 6.735570000000000057e+00 4.697409999999999641e+00 5.757030000000000314e+00 2.066349999999999909e+00 6.077169999999999739e+00 6.549760000000000026e+00 4.521889999999999965e+00 7.537460000000000271e+00 7.373059999999999725e+00 6.300000000000000261e-04 8.862700000000000244e+00 8.125180000000000291e+00 2.317079999999999806e+00 5.607759999999999856e+00 1.511900000000000022e+00 4.663759999999999906e+00 4.420829999999999593e+00 2.436729999999999841e+00 8.410000000000000808e-03 5.779860000000000220e+00 3.207510000000000083e+00 2.355069999999999997e+00 7.105150000000000077e+00 3.959719999999999906e+00 4.671619999999999884e+00 6.038459999999999717e+00 4.939020000000000188e+00 8.881999999999999618e-02 1.071837000000000018e+01 5.413039999999999630e+00 4.896800000000000042e-01 8.603899999999999437e+00 6.393720000000000070e+00 4.583560000000000301e+00 9.893119999999999692e+00 2.455140000000000100e+00 6.934219999999999828e+00 1.179607000000000028e+01 8.038710000000000022e+00 2.341870000000000118e+00 1.314877000000000073e+01 8.807230000000000558e+00 4.705809999999999604e+00 7.331640000000000157e+00 2.380520000000000191e+00 4.329999999999999821e-02 8.629889999999999617e+00 3.154329999999999856e+00 2.395099999999999785e+00 1.000577000000000005e+01 3.894070000000000142e+00 4.715539999999999843e+00 8.565200000000000813e+00 4.783089999999999620e+00 1.505400000000000071e-01 9.944919999999999760e+00 5.575759999999999827e+00 2.606020000000000003e+00 1.108896999999999977e+01 6.425510000000000055e+00 4.964120000000000310e+00 1.270176999999999978e+01 5.919880000000000031e+00 4.182800000000000296e+00 2.913400000000000212e+00 1.659969999999999946e+00 1.127860000000000085e+00 4.221400000000000041e+00 2.391770000000000174e+00 3.480399999999999938e+00 5.578299999999999592e+00 3.157420000000000115e+00 5.845100000000000406e+00 4.452449999999999797e+00 4.130139999999999922e+00 1.133089999999999931e+00 5.388620000000000410e+00 4.915169999999999817e+00 3.686549999999999994e+00 7.125880000000000436e+00 5.643790000000000084e+00 5.807319999999999816e+00 5.980629999999999669e+00 6.596700000000000230e+00 1.023579999999999934e+00 7.395739999999999981e+00 7.402099999999999902e+00 3.517469999999999875e+00 8.801759999999999806e+00 8.029159999999999187e+00 5.760379999999999612e+00 5.807179999999999787e+00 1.556820000000000093e+00 1.191719999999999891e+00 7.115120000000000111e+00 2.288580000000000059e+00 3.544350000000000112e+00 8.478009999999999380e+00 3.068729999999999958e+00 5.854540000000000077e+00 7.246690000000000076e+00 3.930619999999999781e+00 1.154870000000000063e+00 8.661820000000000519e+00 4.736030000000000406e+00 3.648759999999999781e+00 9.868529999999999802e+00 5.581310000000000215e+00 5.939269999999999605e+00 9.253719999999999501e+00 6.417790000000000106e+00 9.858200000000000296e-01 1.018997000000000064e+01 7.202779999999999738e+00 3.539070000000000160e+00 1.154437000000000069e+01 7.966739999999999711e+00 5.892439999999999678e+00 8.727610000000000312e+00 1.592140000000000111e+00 1.151259999999999950e+00 1.007855999999999952e+01 2.356170000000000098e+00 3.521209999999999951e+00 1.141717000000000048e+01 3.113119999999999887e+00 5.849750000000000227e+00 1.007790999999999926e+01 4.024499999999999744e+00 1.283099999999999907e+00 1.139887000000000050e+01 4.847380000000000244e+00 3.649150000000000116e+00 1.271837000000000018e+01 5.590810000000000279e+00 5.928930000000000256e+00 1.202147000000000077e+01 6.485490000000000421e+00 1.022929999999999895e+00 1.334247000000000050e+01 7.308290000000000397e+00 3.389250000000000096e+00 1.472996999999999979e+01 8.019719999999999516e+00 5.770970000000000155e+00
4.489130000000000287e+00 2.534299999999999997e+00 6.963090000000000224e+00 5.954049999999999621e+00 8.213779999999999859e+00 2.327869999999999884e+00 1.598638000000000048e+01 8.999879999999999214e+00 4.681199999999999584e+00 1.011895999999999951e+01 2.517640000000000100e+00 6.029000000000000331e-02 1.153458000000000006e+01 3.240610000000000213e+00 2.369670000000000165e+00 4.440450000000000230e+00 4.038859999999999673e+00 4.688180000000000014e+00 1.159797000000000011e+01 4.909980000000000011e+00 2.885000000000000064e-02 4.480220000000000091e+00 5.747910000000000075e+00 2.241039999999999921e+00 1.445518000000000036e+01 6.572650000000000325e+00 4.650389999999999802e+00 7.328009999999999913e+00 2.560299999999999798e+00 6.912490000000000023e+00 8.932290000000000063e+00 8.289600000000000080e+00 2.400430000000000064e+00 1.028707999999999956e+01 8.997659999999999769e+00 4.604370000000000296e+00 4.242250000000000298e+00 2.454099999999999948e+00 5.902999999999999914e-02 5.783439999999999692e+00 3.284679999999999822e+00 2.377499999999999947e+00 7.284130000000000216e+00 4.162250000000000227e+00 4.579100000000000392e+00 1.024258000000000024e+01 7.406189999999999607e+00 6.836730000000000196e+00 8.216739999999999711e+00 6.351650000000000240e+00 2.829359999999999875e+00 8.851029999999999731e+00 6.565760000000000041e+00 4.780280000000000307e+00 1.022969999999999935e+01 2.589259999999999895e+00 6.916719999999999757e+00 1.167408000000000001e+01 8.211869999999999337e+00 2.249200000000000088e+00 8.619960000000000733e+00 1.717610000000000081e+00 4.533809999999999896e+00 1.175848000000000049e+01 5.050889999999999880e+00 6.932809999999999917e+00 8.665839999999999321e+00 3.371290000000000120e+00 2.284860000000000113e+00 1.018937999999999988e+01 4.125899999999999679e+00 4.674150000000000027e+00 1.315597999999999956e+01 7.561869999999999870e+00 6.920259999999999856e+00 1.024178000000000033e+01 5.749039999999999928e+00 2.249480000000000146e+00 1.168877999999999950e+01 6.596090000000000231e+00 4.547150000000000247e+00 6.495239999999999903e+00 5.266130000000000422e+00 1.927459999999999951e+00 2.846870000000000012e+00 1.701910000000000034e+00 1.205869999999999997e+00 4.471460000000000434e+00 2.393639999999999990e+00 3.528869999999999951e+00 6.010580000000000034e+00 3.412770000000000081e+00 5.799059999999999881e+00 4.570990000000000109e+00 4.170440000000000147e+00 1.187640000000000029e+00 5.763829999999999565e+00 4.892070000000000363e+00 3.565830000000000055e+00 7.434169999999999945e+00 5.858670000000000044e+00 5.857389999999999652e+00 5.795040000000000191e+00 6.527870000000000061e+00 1.033360000000000056e+00 7.385169999999999568e+00 7.414089999999999847e+00 3.547800000000000065e+00 8.850519999999999499e+00 8.208740000000000592e+00 5.826469999999999594e+00 5.770539999999999559e+00 1.674430000000000085e+00 1.225980000000000070e+00 7.264809999999999768e+00 2.402660000000000018e+00 3.435270000000000046e+00 8.606790000000000163e+00 3.381759999999999877e+00 5.785580000000000389e+00 7.203549999999999898e+00 4.081730000000000302e+00 1.110340000000000105e+00 8.843410000000000437e+00 5.026790000000000092e+00 3.476780000000000204e+00 1.028627999999999965e+01 5.835519999999999818e+00 5.835820000000000007e+00 8.710010000000000474e+00 6.671400000000000219e+00 1.202150000000000052e+00 1.016328000000000031e+01 7.304129999999999789e+00 3.454019999999999868e+00 1.166398000000000046e+01 8.203110000000000568e+00 5.731889999999999930e+00 8.799400000000000333e+00 1.675829999999999931e+00 1.216709999999999958e+00 1.019947999999999944e+01 2.463140000000000107e+00 3.429650000000000087e+00 1.164687999999999946e+01 3.308899999999999952e+00 5.812090000000000423e+00 1.009398000000000017e+01 4.099269999999999747e+00 1.156420000000000003e+00 1.156118000000000023e+01 4.958719999999999573e+00 3.433570000000000011e+00 1.320528000000000013e+01 5.958059999999999690e+00 5.900430000000000064e+00 1.167538000000000054e+01 6.530350000000000321e+00 1.066210000000000102e+00 1.311317999999999984e+01 7.466929999999999623e+00 3.441520000000000135e+00 1.446268000000000065e+01 8.330619999999999692e+00 5.748529999999999696e+00
4.043169999999999931e+00 2.328629999999999978e+00 6.984790000000000276e+00 1.395890000000000075e+00 7.914200000000000124e-01 2.276429999999999954e+00 2.694069999999999965e+00 1.563979999999999926e+00 4.629080000000000084e+00 1.429559000000000069e+01 4.800040000000000084e+00 6.994369999999999976e+00 1.162618999999999936e+01 3.289639999999999898e+00 2.330379999999999896e+00 4.158140000000000391e+00 3.770350000000000090e+00 4.763209999999999944e+00 7.585119999999999862e+00 7.177880000000000038e+00 6.729680000000000106e+00 4.693719999999999892e+00 5.753739999999999633e+00 2.067039999999999988e+00 6.083700000000000330e+00 6.544240000000000279e+00 4.515520000000000422e+00 7.544509999999999827e+00 7.373249999999999638e+00 9.200000000000000278e-04 8.870580000000000354e+00 8.122590000000000643e+00 2.317379999999999995e+00 5.604659999999999975e+00 1.511249999999999982e+00 4.665130000000000443e+00 4.424619999999999997e+00 2.433780000000000054e+00 8.139999999999999666e-03 5.781749999999999723e+00 3.207460000000000200e+00 2.355510000000000215e+00 7.107230000000000381e+00 3.957170000000000076e+00 4.671450000000000102e+00 6.043309999999999960e+00 4.940059999999999896e+00 9.199000000000000232e-02 1.072828999999999944e+01 5.405050000000000132e+00 4.839999999999999858e-01 8.610440000000000538e+00 6.390360000000000262e+00 4.579780000000000406e+00 9.892549999999999955e+00 2.451499999999999790e+00 6.938579999999999970e+00 1.180549000000000071e+01 8.040039999999999409e+00 2.343560000000000088e+00 1.315859000000000023e+01 8.805180000000000007e+00 4.707089999999999996e+00 7.335370000000000168e+00 2.381279999999999841e+00 4.472000000000000280e-02 8.635170000000000456e+00 3.156610000000000138e+00 2.395140000000000047e+00 1.000878999999999941e+01 3.891809999999999992e+00 4.716470000000000162e+00 8.570349999999999469e+00 4.786839999999999762e+00 1.564000000000000112e-01 9.960630000000000095e+00 5.576839999999999797e+00 2.604800000000000004e+00 1.109079000000000015e+01 6.423619999999999663e+00 4.972080000000000055e+00 1.270768999999999949e+01 5.925469999999999793e+00 4.187369999999999592e+00 2.914639999999999898e+00 1.656989999999999963e+00 1.126160000000000050e+00 4.218440000000000190e+00 2.387939999999999952e+00 3.480560000000000098e+00 5.572499999999999787e+00 3.155499999999999972e+00 5.847109999999999808e+00 4.454049999999999621e+00 4.127830000000000332e+00 1.132230000000000070e+00 5.388410000000000366e+00 4.912950000000000372e+00 3.686819999999999986e+00 7.128350000000000186e+00 5.636549999999999727e+00 5.802520000000000344e+00 5.981690000000000396e+00 6.594000000000000306e+00 1.027530000000000054e+00 7.401390000000000136e+00 7.397509999999999586e+00 3.515460000000000029e+00 8.805989999999999540e+00 8.026669999999999305e+00 5.759599999999999831e+00 5.811869999999999870e+00 1.558540000000000036e+00 1.193789999999999907e+00 7.117119999999999891e+00 2.289750000000000174e+00 3.545319999999999805e+00 8.478690000000000282e+00 3.065399999999999903e+00 5.852619999999999933e+00 7.251859999999999751e+00 3.932479999999999976e+00 1.156709999999999905e+00 8.671939999999999316e+00 4.736180000000000057e+00 3.644930000000000003e+00 9.867219999999999658e+00 5.578739999999999810e+00 5.942370000000000374e+00 9.265769999999999840e+00 6.419500000000000206e+00 9.847399999999999487e-01 1.019788999999999923e+01 7.201069999999999638e+00 3.542409999999999837e+00 1.154518999999999984e+01 7.967159999999999798e+00 5.898859999999999992e+00 8.734529999999999461e+00 1.594189999999999996e+00 1.147720000000000073e+00 1.008455000000000013e+01 2.355929999999999858e+00 3.518679999999999808e+00 1.141478999999999999e+01 3.109350000000000058e+00 5.851860000000000284e+00 1.008094000000000001e+01 4.025699999999999612e+00 1.284690000000000110e+00 1.140929000000000038e+01 4.845369999999999955e+00 3.653659999999999908e+00 1.271528999999999954e+01 5.592389999999999972e+00 5.931809999999999583e+00 1.202388999999999974e+01 6.484919999999999796e+00 1.023490000000000011e+00 1.334958999999999918e+01 7.309610000000000163e+00 3.388230000000000075e+00 1.473738999999999955e+01 8.011480000000000601e+00 5.767789999999999750e+00