-3.771709275700000035e+02
-3.780823107100000016e+02
-3.794260288199999991e+02
-3.795150919999999815e+02
-3.780038687900000127e+02
-3.836269111799999791e+02
-3.808631759599999782e+02
-3.790045515699999896e+02
-3.862685673400000042e+02
-3.754861371999999733e+02
-3.803191718200000082e+02
-3.861886480800000072e+02
-3.863911465799999974e+02
-3.827721301000000267e+02
-3.860499195500000269e+02
-3.798158814600000142e+02
-3.771851014800000144e+02
-3.811859948800000097e+02
-3.832089415799999870e+02
-3.781871466599999962e+02
-3.775565751999999975e+02
-3.863680987100000266e+02
-3.798947211400000015e+02
-3.857060694900000044e+02
-3.828176323999999795e+02
-3.762506422399999906e+02
-3.837314057099999900e+02
-3.809954409700000042e+02
-3.859248483100000158e+02
-3.791063888499999734e+02
-3.837479054099999871e+02
-3.781730065799999920e+02
-3.767463636100000031e+02
-3.788358997999999929e+02
-3.814176347100000157e+02
-3.805768373600000132e+02
-3.837062081899999839e+02
-3.782503652899999906e+02
-3.802385069399999793e+02
-3.809531197800000086e+02
-3.783291931900000122e+02
-3.802170210500000280e+02
-3.860409631200000149e+02
-3.801989492700000142e+02
-3.786123002699999915e+02
-3.827874153199999796e+02
-3.784808827599999859e+02
-3.854933843200000183e+02
-3.857893529300000068e+02
-3.858383878000000209e+02
