1.510869999999999935e+00 9.252000000000000224e-01 3.186599999999999877e+00 1.513940000000000063e+00 9.053200000000000136e-01 7.427290000000000170e+00 6.278529999999999944e+00 3.846439999999999859e+00 3.213229999999999809e+00 6.159740000000000215e+00 3.596239999999999881e+00 7.367729999999999890e+00 4.552290000000000170e+00 6.578839999999999577e+00 2.984459999999999891e+00 4.741550000000000153e+00 6.417010000000000325e+00 7.341479999999999784e+00 4.777470000000000105e+00 8.337900000000000311e-01 3.244499999999999940e+00 4.702560000000000073e+00 9.049399999999999666e-01 7.270410000000000039e+00 2.975670000000000037e+00 3.736009999999999831e+00 3.229999999999999982e+00 2.978499999999999925e+00 3.720330000000000137e+00 7.362119999999999997e+00 1.508890000000000065e+00 6.525719999999999743e+00 3.325149999999999828e+00 6.432389999999999830e+00 1.896859999999999991e+00 1.163980000000000015e+00 6.395459999999999923e+00 1.854319999999999968e+00 5.458470000000000155e+00 4.643749999999999822e+00 4.590390000000000192e+00 1.090359999999999996e+00 4.454460000000000086e+00 4.597509999999999764e+00 5.344890000000000363e+00 3.147429999999999950e+00 7.500499999999999723e+00 1.159089999999999954e+00 3.144460000000000033e+00 7.570820000000000327e+00 5.361410000000000231e+00 3.196790000000000020e+00 1.902390000000000025e+00 1.014049999999999896e+00 3.098619999999999930e+00 1.804040000000000088e+00 5.173149999999999693e+00 1.390090000000000048e+00 4.616749999999999687e+00 1.027420000000000000e+00 1.284399999999999986e+00 4.565999999999999837e+00 5.341800000000000104e+00 6.479400000000000048e+00 7.551669999999999661e+00 9.277999999999999581e-01 6.227669999999999817e+00 7.491839999999999833e+00 5.392159999999999620e+00 1.620859999999999967e+00 8.946600000000000108e-01 9.797200000000000353e-01 1.456909999999999927e+00 9.493800000000000017e-01 5.028979999999999784e+00 6.194580000000000197e+00 3.772510000000000030e+00 1.005600000000000049e+00 6.108590000000000408e+00 3.705159999999999787e+00 5.135559999999999903e+00 4.731790000000000163e+00 6.489860000000000184e+00 8.649099999999999566e-01 4.633449999999999847e+00 6.514750000000000263e+00 5.416229999999999656e+00 4.813430000000000319e+00 9.386600000000000499e-01 9.870200000000000085e-01 4.825800000000000090e+00 9.168500000000000538e-01 5.223300000000000054e+00 2.938689999999999802e+00 3.698259999999999881e+00 9.421800000000000175e-01 2.875469999999999970e+00 3.641049999999999898e+00 5.183440000000000047e+00 1.571939999999999893e+00 6.569270000000000387e+00 9.441899999999999737e-01 1.609629999999999894e+00 6.493330000000000268e+00 5.296509999999999607e+00 6.337089999999999890e+00 1.873459999999999903e+00 3.108999999999999986e+00 6.363620000000000054e+00 1.890879999999999894e+00 7.325919999999999987e+00 4.625910000000000188e+00 4.663859999999999673e+00 3.010679999999999801e+00 4.455659999999999954e+00 4.653739999999999988e+00 7.158850000000000158e+00 3.045539999999999914e+00 7.418730000000000047e+00 3.154160000000000075e+00 2.927560000000000162e+00 7.505069999999999908e+00 7.340620000000000367e+00 3.209039999999999893e+00 1.686369999999999925e+00 3.249810000000000088e+00 3.178469999999999906e+00 1.835520000000000040e+00 7.128009999999999735e+00 1.441829999999999945e+00 4.798890000000000100e+00 3.032739999999999991e+00 1.367960000000000065e+00 4.622659999999999769e+00 7.177489999999999704e+00 6.191840000000000011e+00 7.304330000000000211e+00 3.147390000000000132e+00 6.279630000000000045e+00 7.437610000000000277e+00 7.183410000000000295e+00
1.576940000000000008e+00 7.326899999999999524e-01 3.157880000000000020e+00 1.716699999999999893e+00 1.246250000000000080e+00 7.175150000000000361e+00 6.640930000000000000e+00 3.811830000000000052e+00 3.085399999999999920e+00 6.785779999999999923e+00 4.131619999999999848e+00 7.276500000000000412e+00 5.063950000000000173e+00 6.625479999999999592e+00 3.033469999999999889e+00 4.974120000000000097e+00 6.627679999999999794e+00 7.146759999999999557e+00 5.042609999999999815e+00 7.992500000000000160e-01 2.933870000000000200e+00 5.123129999999999740e+00 9.946500000000000341e-01 7.123459999999999681e+00 3.312419999999999920e+00 3.784469999999999779e+00 3.173740000000000006e+00 3.477240000000000109e+00 3.807090000000000085e+00 7.263779999999999681e+00 1.808519999999999905e+00 6.686740000000000350e+00 3.110619999999999941e+00 6.405030000000000001e+00 2.035410000000000164e+00 1.147659999999999902e+00 6.551029999999999909e+00 2.048340000000000050e+00 5.216719999999999580e+00 4.881120000000000125e+00 4.645069999999999588e+00 1.036680000000000046e+00 5.013880000000000337e+00 4.804400000000000226e+00 5.214800000000000324e+00 3.507299999999999862e+00 7.607129999999999725e+00 8.410699999999999843e-01 3.293960000000000221e+00 7.435529999999999973e+00 5.201990000000000336e+00 3.197420000000000151e+00 1.860649999999999915e+00 1.030839999999999979e+00 3.345569999999999933e+00 1.932500000000000107e+00 5.290079999999999671e+00 1.729659999999999975e+00 4.781640000000000335e+00 9.171099999999999808e-01 1.915079999999999893e+00 4.894540000000000113e+00 5.138259999999999827e+00 6.669509999999999827e+00 7.461409999999999876e+00 8.681600000000000428e-01 6.848770000000000024e+00 7.479359999999999786e+00 5.331979999999999720e+00 1.567469999999999919e+00 1.040869999999999962e+00 1.123110000000000053e+00 1.755910000000000082e+00 1.047449999999999992e+00 5.471580000000000332e+00 6.661929999999999907e+00 3.849880000000000191e+00 1.131909999999999972e+00 6.720629999999999882e+00 3.890820000000000167e+00 5.153400000000000425e+00 4.909959999999999880e+00 6.515369999999999884e+00 9.559299999999999464e-01 5.084120000000000417e+00 6.809859999999999580e+00 5.338029999999999831e+00 5.009520000000000195e+00 8.386599999999999611e-01 1.093760000000000066e+00 5.047690000000000232e+00 8.915600000000000191e-01 5.121410000000000018e+00 3.362029999999999852e+00 3.722970000000000113e+00 9.891199999999999992e-01 3.415430000000000188e+00 3.848370000000000068e+00 5.238069999999999560e+00 1.854340000000000099e+00 6.572519999999999918e+00 9.257499999999999618e-01 1.781130000000000102e+00 6.498709999999999987e+00 5.108880000000000088e+00 6.513040000000000163e+00 1.962120000000000086e+00 3.340230000000000032e+00 6.640310000000000379e+00 2.138809999999999878e+00 7.368229999999999613e+00 4.872230000000000061e+00 4.729269999999999641e+00 3.182030000000000136e+00 5.111939999999999706e+00 4.699600000000000222e+00 7.250960000000000072e+00 3.422540000000000138e+00 7.515109999999999957e+00 3.176579999999999959e+00 3.413380000000000081e+00 7.483369999999999855e+00 7.284139999999999837e+00 3.321480000000000210e+00 1.816889999999999894e+00 3.253859999999999975e+00 3.550180000000000113e+00 1.843800000000000106e+00 7.266899999999999693e+00 1.686800000000000077e+00 4.747309999999999697e+00 3.148229999999999862e+00 1.753600000000000048e+00 5.025979999999999670e+00 7.380679999999999907e+00 6.773249999999999993e+00 7.448260000000000325e+00 3.125539999999999985e+00 6.867110000000000269e+00 7.552509999999999835e+00 7.209209999999999674e+00
1.413640000000000008e+00 8.990700000000000358e-01 3.036599999999999966e+00 1.495560000000000000e+00 7.802799999999999736e-01 7.579679999999999751e+00 6.101479999999999571e+00 3.810500000000000220e+00 3.272310000000000052e+00 6.243990000000000151e+00 3.680029999999999912e+00 7.415670000000000428e+00 4.677679999999999616e+00 6.658470000000000333e+00 3.417229999999999990e+00 4.421039999999999637e+00 6.554800000000000182e+00 7.412670000000000314e+00 4.665000000000000036e+00 8.701299999999999590e-01 3.245629999999999793e+00 4.510080000000000311e+00 9.846599999999999797e-01 7.369839999999999947e+00 2.841730000000000089e+00 3.798840000000000217e+00 3.144330000000000069e+00 2.909720000000000084e+00 3.704629999999999868e+00 7.505139999999999922e+00 1.328200000000000047e+00 6.746419999999999639e+00 3.117620000000000058e+00 6.451830000000000176e+00 1.959039999999999893e+00 1.061949999999999950e+00 6.231020000000000003e+00 1.939570000000000016e+00 5.407259999999999955e+00 4.670309999999999739e+00 4.803040000000000198e+00 1.222599999999999909e+00 4.601119999999999877e+00 4.836500000000000021e+00 5.144180000000000419e+00 3.171899999999999942e+00 7.588960000000000150e+00 9.736700000000000355e-01 3.154689999999999994e+00 7.609009999999999607e+00 5.217329999999999579e+00 2.999870000000000037e+00 1.948180000000000023e+00 1.131219999999999892e+00 3.095969999999999889e+00 1.928560000000000052e+00 5.355660000000000309e+00 1.488070000000000004e+00 4.865490000000000315e+00 9.280699999999999505e-01 1.372370000000000090e+00 4.700990000000000002e+00 5.495949999999999669e+00 6.279020000000000046e+00 7.740770000000000373e+00 1.049479999999999968e+00 6.089089999999999669e+00 7.736679999999999779e+00 5.459109999999999907e+00 1.562599999999999989e+00 8.410499999999999643e-01 1.180940000000000101e+00 1.435289999999999955e+00 1.011849999999999916e+00 5.431899999999999729e+00 6.178480000000000416e+00 3.856970000000000010e+00 1.152230000000000087e+00 6.077399999999999913e+00 3.805219999999999825e+00 5.352229999999999599e+00 4.647330000000000183e+00 6.633009999999999629e+00 9.125199999999999978e-01 4.577619999999999578e+00 6.607610000000000205e+00 5.248000000000000220e+00 4.610509999999999664e+00 9.862300000000000511e-01 9.226199999999999957e-01 4.684029999999999916e+00 9.734699999999999465e-01 5.453269999999999840e+00 2.978110000000000035e+00 3.842070000000000096e+00 1.051469999999999905e+00 2.949619999999999909e+00 3.739199999999999857e+00 5.350349999999999717e+00 1.561069999999999958e+00 6.765320000000000000e+00 1.027479999999999949e+00 1.516639999999999988e+00 6.689729999999999954e+00 5.313460000000000072e+00 6.173939999999999984e+00 1.911839999999999984e+00 3.288139999999999841e+00 6.340849999999999653e+00 1.708660000000000068e+00 7.662630000000000052e+00 4.599549999999999805e+00 4.909060000000000201e+00 3.189610000000000056e+00 4.616579999999999906e+00 4.640869999999999607e+00 7.218210000000000015e+00 3.090149999999999952e+00 7.558749999999999858e+00 3.288889999999999869e+00 2.971159999999999801e+00 7.548809999999999576e+00 7.214970000000000105e+00 3.025609999999999911e+00 1.729980000000000073e+00 3.317000000000000171e+00 2.970950000000000202e+00 1.932320000000000038e+00 7.636560000000000237e+00 1.385760000000000103e+00 4.794220000000000148e+00 3.395960000000000090e+00 1.358980000000000077e+00 4.782799999999999940e+00 7.654349999999999987e+00 6.166540000000000354e+00 7.653889999999999638e+00 3.164239999999999942e+00 6.179269999999999818e+00 7.537689999999999557e+00 7.499189999999999579e+00
1.719969999999999999e+00 8.622300000000000519e-01 3.163479999999999848e+00 1.664600000000000080e+00 8.960900000000000531e-01 7.412749999999999950e+00 6.745709999999999873e+00 3.801740000000000119e+00 3.257620000000000182e+00 6.630160000000000053e+00 3.736180000000000057e+00 7.437829999999999941e+00 5.012419999999999654e+00 6.499419999999999753e+00 3.288279999999999870e+00 5.134100000000000108e+00 6.681160000000000210e+00 7.472150000000000070e+00 4.981700000000000017e+00 9.354099999999999637e-01 3.134700000000000042e+00 4.980870000000000353e+00 9.145400000000000196e-01 7.502939999999999721e+00 3.233220000000000205e+00 3.804940000000000211e+00 3.215090000000000003e+00 3.162249999999999783e+00 3.522710000000000008e+00 7.493030000000000079e+00 1.689529999999999976e+00 6.556869999999999976e+00 3.203559999999999963e+00 6.601180000000000270e+00 1.915920000000000067e+00 1.019150000000000000e+00 6.513219999999999565e+00 1.808599999999999985e+00 5.147429999999999950e+00 5.044559999999999711e+00 4.624889999999999723e+00 1.177249999999999908e+00 5.102289999999999992e+00 4.565579999999999750e+00 5.211219999999999963e+00 3.419560000000000155e+00 7.419929999999999914e+00 1.237430000000000030e+00 3.477799999999999780e+00 7.260189999999999699e+00 5.316060000000000230e+00 3.306420000000000137e+00 1.892060000000000075e+00 1.050680000000000058e+00 3.383970000000000145e+00 1.746480000000000032e+00 5.228869999999999685e+00 1.600610000000000088e+00 4.672450000000000436e+00 9.481899999999999773e-01 1.708309999999999995e+00 4.543129999999999669e+00 5.358909999999999840e+00 6.820179999999999687e+00 7.480999999999999872e+00 1.018280000000000074e+00 6.956319999999999837e+00 7.429240000000000066e+00 5.390850000000000364e+00 1.742150000000000087e+00 8.695199999999999596e-01 1.170719999999999983e+00 1.631070000000000020e+00 8.256599999999999495e-01 5.149969999999999715e+00 6.611480000000000246e+00 3.763729999999999798e+00 8.915800000000000392e-01 6.626059999999999839e+00 3.647759999999999891e+00 5.501730000000000231e+00 5.092100000000000293e+00 6.611209999999999809e+00 1.063960000000000017e+00 5.088799999999999990e+00 6.362149999999999750e+00 5.256249999999999645e+00 4.896069999999999922e+00 1.003419999999999979e+00 1.092200000000000060e+00 4.942230000000000345e+00 8.988699999999999468e-01 5.477289999999999992e+00 3.276530000000000165e+00 3.725010000000000154e+00 1.054100000000000037e+00 3.392020000000000035e+00 3.605879999999999974e+00 5.271700000000000053e+00 1.751859999999999973e+00 6.513589999999999769e+00 1.132009999999999961e+00 1.892490000000000006e+00 6.385550000000000281e+00 5.457119999999999749e+00 6.544889999999999652e+00 2.015950000000000131e+00 3.212549999999999795e+00 6.761359999999999815e+00 1.814759999999999929e+00 7.485629999999999562e+00 5.125609999999999999e+00 4.612140000000000128e+00 3.257849999999999913e+00 4.909239999999999604e+00 4.635019999999999918e+00 7.437879999999999825e+00 3.367170000000000218e+00 7.367060000000000386e+00 3.240670000000000162e+00 3.442439999999999944e+00 7.347109999999999808e+00 7.533999999999999808e+00 3.301250000000000018e+00 1.825560000000000072e+00 3.183600000000000207e+00 3.288629999999999942e+00 1.802459999999999951e+00 7.479009999999999714e+00 1.695429999999999993e+00 4.742149999999999643e+00 3.170269999999999921e+00 1.764299999999999979e+00 4.724700000000000344e+00 7.618389999999999773e+00 6.727990000000000137e+00 7.495300000000000296e+00 3.120330000000000048e+00 6.822479999999999656e+00 7.421960000000000335e+00 7.517500000000000071e+00
1.585700000000000109e+00 9.001500000000000057e-01 3.086190000000000211e+00 1.673370000000000024e+00 9.969299999999999828e-01 7.228259999999999685e+00 6.376669999999999838e+00 3.812940000000000218e+00 3.189680000000000071e+00 6.430769999999999875e+00 3.823399999999999910e+00 7.229359999999999786e+00 4.759780000000000122e+00 6.591109999999999580e+00 3.198850000000000193e+00 4.834380000000000344e+00 6.686329999999999885e+00 7.286529999999999951e+00 4.965399999999999814e+00 9.041299999999999892e-01 3.185859999999999914e+00 4.867849999999999788e+00 9.548499999999999766e-01 7.293829999999999814e+00 3.197560000000000180e+00 3.680890000000000217e+00 3.022279999999999855e+00 3.082180000000000142e+00 3.906649999999999956e+00 7.263939999999999841e+00 1.605730000000000102e+00 6.729009999999999714e+00 3.151749999999999829e+00 6.353799999999999670e+00 1.865830000000000100e+00 1.057450000000000001e+00 6.443039999999999878e+00 2.001339999999999897e+00 5.197540000000000049e+00 4.728760000000000296e+00 4.784049999999999692e+00 1.081599999999999895e+00 4.685430000000000206e+00 4.807210000000000427e+00 5.284849999999999604e+00 3.311459999999999848e+00 7.705820000000000114e+00 1.050400000000000000e+00 3.313340000000000174e+00 7.672460000000000058e+00 5.169810000000000016e+00 3.140610000000000124e+00 1.986080000000000068e+00 1.006399999999999961e+00 3.259679999999999911e+00 1.877830000000000110e+00 5.094319999999999737e+00 1.558370000000000033e+00 4.963350000000000151e+00 1.054729999999999945e+00 1.585050000000000070e+00 4.874200000000000088e+00 5.168210000000000193e+00 6.366410000000000124e+00 7.633939999999999948e+00 1.045109999999999983e+00 6.527420000000000222e+00 7.638259999999999827e+00 5.362079999999999735e+00 1.542149999999999910e+00 9.937799999999999967e-01 1.061790000000000012e+00 1.639829999999999899e+00 1.041690000000000005e+00 5.132909999999999862e+00 6.266090000000000160e+00 3.726059999999999928e+00 1.196709999999999940e+00 6.431890000000000107e+00 3.846870000000000012e+00 5.247499999999999609e+00 4.679149999999999920e+00 6.607219999999999871e+00 8.645599999999999952e-01 4.809689999999999799e+00 6.678149999999999586e+00 5.172889999999999766e+00 4.788730000000000153e+00 9.328699999999999770e-01 9.777500000000000080e-01 4.955070000000000086e+00 8.705199999999999605e-01 5.262809999999999988e+00 3.154230000000000089e+00 3.726890000000000036e+00 1.105699999999999905e+00 3.095250000000000057e+00 3.808600000000000207e+00 5.204460000000000086e+00 1.687249999999999917e+00 6.724619999999999820e+00 1.043660000000000032e+00 1.717440000000000078e+00 6.768919999999999604e+00 5.288689999999999891e+00 6.403360000000000163e+00 1.893969999999999931e+00 3.312739999999999796e+00 6.465370000000000061e+00 1.950159999999999894e+00 7.279729999999999812e+00 4.710619999999999585e+00 4.704760000000000275e+00 3.161319999999999908e+00 4.798980000000000246e+00 4.805740000000000123e+00 7.315559999999999619e+00 3.195629999999999971e+00 7.649269999999999570e+00 3.153540000000000010e+00 3.369679999999999787e+00 7.690120000000000289e+00 7.353360000000000340e+00 3.299720000000000208e+00 1.912479999999999958e+00 3.152299999999999880e+00 3.246529999999999916e+00 2.006190000000000140e+00 7.308270000000000266e+00 1.577649999999999997e+00 4.930469999999999686e+00 3.059140000000000192e+00 1.558119999999999949e+00 4.797539999999999694e+00 7.437800000000000189e+00 6.329589999999999606e+00 7.536609999999999587e+00 3.079190000000000094e+00 6.463280000000000136e+00 7.572129999999999583e+00 7.237040000000000362e+00
1.561919999999999975e+00 9.316400000000000237e-01 3.096070000000000100e+00 1.560689999999999911e+00 9.199500000000000455e-01 7.194600000000000328e+00 6.350200000000000067e+00 3.759809999999999874e+00 2.976259999999999906e+00 6.421999999999999709e+00 3.816949999999999843e+00 7.187520000000000131e+00 4.895819999999999617e+00 6.524379999999999846e+00 3.013389999999999791e+00 4.893869999999999720e+00 6.586439999999999628e+00 7.288389999999999702e+00 4.793289999999999829e+00 8.911900000000000377e-01 3.089440000000000186e+00 4.729370000000000296e+00 9.814399999999999791e-01 7.180500000000000327e+00 3.158619999999999983e+00 3.727180000000000160e+00 3.128699999999999815e+00 3.273190000000000044e+00 3.783269999999999911e+00 7.236089999999999911e+00 1.662490000000000023e+00 6.585130000000000372e+00 3.198440000000000172e+00 6.526510000000000034e+00 1.793290000000000051e+00 8.619200000000000195e-01 6.418919999999999959e+00 1.931000000000000050e+00 5.095609999999999751e+00 4.812339999999999840e+00 4.687529999999999752e+00 1.073430000000000106e+00 4.831430000000000113e+00 4.685389999999999944e+00 5.006170000000000009e+00 3.242519999999999847e+00 7.477899999999999991e+00 1.075159999999999894e+00 3.196930000000000049e+00 7.484300000000000175e+00 5.053720000000000212e+00 3.273499999999999854e+00 1.899690000000000101e+00 9.390100000000000113e-01 3.209649999999999892e+00 1.972490000000000077e+00 5.116480000000000139e+00 1.676169999999999938e+00 4.748619999999999841e+00 1.103029999999999955e+00 1.582470000000000043e+00 4.702799999999999869e+00 5.150739999999999874e+00 6.522199999999999775e+00 7.494679999999999787e+00 1.209340000000000082e+00 6.449379999999999669e+00 7.560150000000000148e+00 5.193019999999999747e+00 1.735109999999999930e+00 8.864800000000000457e-01 9.337900000000000089e-01 1.632370000000000099e+00 9.792399999999999993e-01 5.056429999999999758e+00 6.506160000000000387e+00 3.828850000000000087e+00 9.929499999999999993e-01 6.419080000000000119e+00 3.788040000000000074e+00 5.121950000000000003e+00 4.929310000000000080e+00 6.536270000000000024e+00 1.058159999999999989e+00 4.835630000000000095e+00 6.546560000000000379e+00 5.189350000000000129e+00 4.843989999999999796e+00 9.174299999999999677e-01 9.571300000000000363e-01 4.772669999999999746e+00 1.040759999999999907e+00 5.044220000000000148e+00 3.148200000000000109e+00 3.815020000000000078e+00 1.055180000000000007e+00 3.158479999999999954e+00 3.776339999999999808e+00 5.025360000000000049e+00 1.677249999999999908e+00 6.494239999999999569e+00 1.073900000000000077e+00 1.616430000000000033e+00 6.580499999999999794e+00 5.068369999999999820e+00 6.417519999999999669e+00 1.929880000000000040e+00 3.063419999999999810e+00 6.336190000000000211e+00 1.883389999999999898e+00 7.178980000000000139e+00 4.802669999999999995e+00 4.636020000000000252e+00 3.089069999999999983e+00 4.774449999999999861e+00 4.739930000000000199e+00 7.282949999999999591e+00 3.287939999999999863e+00 7.498389999999999667e+00 3.167110000000000092e+00 3.211199999999999832e+00 7.464570000000000149e+00 7.150920000000000165e+00 3.213490000000000180e+00 1.800850000000000062e+00 3.003750000000000142e+00 3.215479999999999894e+00 1.958129999999999926e+00 7.257469999999999644e+00 1.561080000000000023e+00 4.773419999999999774e+00 3.064029999999999809e+00 1.546829999999999927e+00 4.728609999999999758e+00 7.113690000000000069e+00 6.578700000000000436e+00 7.468689999999999607e+00 3.188499999999999890e+00 6.537139999999999951e+00 7.527370000000000339e+00 7.266740000000000421e+00
1.558759999999999923e+00 8.027100000000000346e-01 3.253200000000000092e+00 1.790429999999999966e+00 5.195999999999999508e-01 7.804700000000000415e+00 6.371979999999999755e+00 3.694049999999999834e+00 3.198929999999999829e+00 6.692980000000000373e+00 3.494559999999999889e+00 7.852870000000000239e+00 5.086310000000000109e+00 6.587530000000000108e+00 3.523530000000000051e+00 5.061370000000000147e+00 6.353469999999999729e+00 7.615730000000000111e+00 5.004540000000000433e+00 7.688800000000000079e-01 3.249140000000000139e+00 4.951389999999999958e+00 6.830699999999999550e-01 7.648439999999999905e+00 3.423459999999999948e+00 3.582530000000000214e+00 3.091930000000000067e+00 3.479540000000000077e+00 3.594110000000000138e+00 7.677109999999999879e+00 1.662860000000000005e+00 6.409040000000000070e+00 3.330799999999999983e+00 6.525529999999999831e+00 1.818289999999999962e+00 1.140239999999999920e+00 6.675799999999999734e+00 1.873170000000000002e+00 5.727549999999999919e+00 4.910859999999999559e+00 4.695689999999999920e+00 1.000469999999999970e+00 5.163680000000000270e+00 4.660669999999999646e+00 5.401939999999999742e+00 3.411919999999999842e+00 7.448640000000000150e+00 1.170199999999999907e+00 3.194440000000000168e+00 7.208960000000000257e+00 5.645400000000000418e+00 3.395779999999999799e+00 1.817909999999999915e+00 1.090489999999999959e+00 3.378239999999999910e+00 1.802999999999999936e+00 5.462189999999999657e+00 1.653729999999999922e+00 4.770880000000000010e+00 1.192739999999999911e+00 1.779679999999999929e+00 4.406299999999999883e+00 5.474890000000000256e+00 6.518270000000000231e+00 7.380429999999999602e+00 1.041909999999999892e+00 6.697460000000000413e+00 7.351390000000000313e+00 5.599730000000000096e+00 1.779150000000000009e+00 8.602899999999999991e-01 1.139189999999999925e+00 1.654789999999999983e+00 6.189500000000000002e-01 5.676849999999999952e+00 6.667110000000000092e+00 3.941609999999999836e+00 1.088359999999999994e+00 6.718130000000000379e+00 3.756400000000000183e+00 5.171120000000000161e+00 4.963659999999999961e+00 6.423670000000000435e+00 9.459400000000000031e-01 4.928320000000000256e+00 6.457869999999999777e+00 5.579769999999999897e+00 5.003730000000000011e+00 8.846500000000000474e-01 9.045299999999999452e-01 5.117379999999999818e+00 9.158399999999999874e-01 5.450680000000000192e+00 3.382210000000000161e+00 3.683300000000000018e+00 1.122540000000000093e+00 3.375300000000000189e+00 3.785810000000000120e+00 5.841359999999999886e+00 1.827930000000000055e+00 6.615870000000000140e+00 1.109790000000000054e+00 1.763460000000000027e+00 6.503029999999999866e+00 5.450380000000000003e+00 6.489340000000000330e+00 1.710709999999999953e+00 3.182580000000000187e+00 6.779069999999999929e+00 1.523409999999999931e+00 7.789710000000000356e+00 4.874469999999999636e+00 4.722889999999999588e+00 3.189130000000000020e+00 5.061860000000000248e+00 4.368450000000000166e+00 7.567949999999999733e+00 3.486530000000000129e+00 7.405719999999999636e+00 3.087410000000000210e+00 3.256800000000000139e+00 7.208239999999999981e+00 7.538240000000000052e+00 3.474070000000000213e+00 1.773460000000000036e+00 3.332380000000000120e+00 3.435909999999999798e+00 1.787330000000000085e+00 7.832130000000000258e+00 1.769870000000000054e+00 4.446180000000000021e+00 3.228380000000000027e+00 1.797870000000000079e+00 4.376290000000000013e+00 7.929439999999999600e+00 6.574250000000000149e+00 7.490269999999999762e+00 2.994079999999999853e+00 6.772979999999999556e+00 7.249369999999999870e+00 7.608089999999999797e+00
1.723710000000000075e+00 1.057479999999999976e+00 2.980010000000000048e+00 1.738750000000000018e+00 1.209540000000000060e+00 7.197540000000000049e+00 6.285319999999999574e+00 3.765760000000000218e+00 2.911620000000000097e+00 6.612049999999999983e+00 3.975620000000000154e+00 7.424009999999999998e+00 4.908339999999999925e+00 6.877360000000000362e+00 3.181690000000000129e+00 5.038560000000000372e+00 6.967259999999999565e+00 7.317420000000000258e+00 4.835479999999999556e+00 6.978199999999999958e-01 3.073570000000000135e+00 4.921969999999999956e+00 9.980299999999999727e-01 7.335609999999999964e+00 3.153929999999999900e+00 3.958919999999999995e+00 3.033049999999999802e+00 3.447919999999999874e+00 3.958219999999999850e+00 7.206400000000000361e+00 1.768990000000000062e+00 6.853930000000000078e+00 3.045370000000000132e+00 6.541109999999999758e+00 2.053609999999999935e+00 9.018800000000000150e-01 6.411030000000000229e+00 2.011159999999999837e+00 5.322980000000000267e+00 4.879450000000000287e+00 4.826080000000000148e+00 1.027470000000000105e+00 5.077569999999999695e+00 5.144210000000000171e+00 5.199150000000000382e+00 3.350459999999999994e+00 7.657750000000000057e+00 1.047099999999999920e+00 3.424300000000000122e+00 7.844059999999999810e+00 5.253669999999999618e+00 3.396349999999999980e+00 2.089309999999999778e+00 1.039460000000000051e+00 3.345650000000000013e+00 1.910539999999999905e+00 5.106410000000000338e+00 1.721419999999999950e+00 5.015900000000000247e+00 1.078659999999999952e+00 1.855019999999999891e+00 4.838409999999999656e+00 5.092929999999999957e+00 6.656719999999999970e+00 7.795889999999999986e+00 9.858200000000000296e-01 6.738710000000000200e+00 7.895789999999999864e+00 5.239340000000000330e+00 1.468169999999999975e+00 9.555200000000000360e-01 1.043080000000000007e+00 1.729610000000000092e+00 1.014369999999999994e+00 5.253079999999999750e+00 6.478860000000000063e+00 3.846600000000000019e+00 1.123899999999999899e+00 6.537480000000000402e+00 3.903700000000000170e+00 5.534089999999999954e+00 4.987070000000000114e+00 6.668610000000000149e+00 1.064629999999999965e+00 5.232420000000000293e+00 6.906430000000000291e+00 5.169599999999999973e+00 4.772300000000000431e+00 9.415900000000000380e-01 1.205419999999999936e+00 4.787149999999999572e+00 8.809099999999999708e-01 5.233889999999999709e+00 3.325860000000000039e+00 3.930070000000000174e+00 1.223910000000000053e+00 3.413159999999999972e+00 3.903080000000000105e+00 5.269899999999999807e+00 1.897259999999999946e+00 6.806250000000000355e+00 1.050740000000000007e+00 1.858309999999999906e+00 6.716289999999999871e+00 5.218479999999999563e+00 6.303880000000000372e+00 1.822319999999999940e+00 3.299370000000000136e+00 6.510530000000000150e+00 2.096519999999999939e+00 7.372359999999999580e+00 4.807409999999999961e+00 4.780339999999999812e+00 3.015979999999999883e+00 4.946729999999999627e+00 5.065590000000000259e+00 7.157949999999999591e+00 3.315669999999999895e+00 7.847669999999999924e+00 3.160379999999999967e+00 3.447789999999999910e+00 8.009710000000000107e+00 7.171509999999999607e+00 3.401800000000000157e+00 2.107009999999999827e+00 3.027369999999999894e+00 3.394530000000000047e+00 2.129550000000000054e+00 7.398039999999999949e+00 1.532410000000000050e+00 4.908470000000000333e+00 3.043089999999999851e+00 1.690110000000000001e+00 5.117860000000000298e+00 7.336249999999999716e+00 6.547719999999999985e+00 7.682179999999999787e+00 3.172340000000000160e+00 6.746100000000000207e+00 8.069979999999999265e+00 7.470100000000000406e+00