5.274280000000000079e-01 -1.556108999999999964e+00 -2.419179999999999942e-01 9.473859999999999504e-01 -5.294489999999999474e-01 -6.278080000000000327e-01 -1.470217000000000107e+00 -1.695667999999999953e+00 4.276400000000000340e-02 -1.181561000000000083e+00 3.572653999999999996e+00 -7.501599999999999935e-02 2.998822000000000099e+00 -2.158935000000000048e+00 1.450533000000000072e+00 -1.546840999999999910e+00 1.308456999999999981e+00 -7.805900000000000338e-02 9.708109999999999795e-01 -9.016650000000000498e-01 -1.460150000000000059e-01 8.121720000000000050e-01 -3.839330000000000243e-01 4.450379999999999892e-01 4.501839999999999731e-01 -4.674289999999999834e-01 -5.685930000000000151e-01 -1.613901000000000030e+00 -1.953159000000000090e+00 -9.615839999999999943e-01 -1.189600999999999908e+00 9.078690000000000371e-01 -4.062680000000000180e-01 -1.101585999999999954e+00 4.994099999999999928e-02 -1.051480000000000053e-01 -1.648277999999999910e+00 1.013776999999999928e+00 -3.425103000000000009e+00 -1.630640000000000089e+00 1.881121999999999961e+00 6.628900000000000070e-02 1.291916000000000064e+00 1.304264000000000090e+00 -2.007877999999999830e+00 -5.013490000000000446e-01 -5.023520000000000207e-01 -1.837728999999999946e+00 -9.925939999999999763e-01 -9.876920000000000144e-01 -8.867789999999999839e-01 6.696699999999999875e-01 -1.397512000000000087e+00 1.664476999999999984e+00 6.693569999999999798e-01 6.965999999999999970e-03 1.010405999999999915e+00 1.123761000000000010e+00 3.516882999999999981e+00 8.898200000000000554e-01 1.639845999999999915e+00 2.512586000000000208e+00 -4.960709999999999842e-01 -2.213559000000000054e+00 -8.760539999999999994e-01 1.291563999999999934e+00 9.296729999999999716e-01 -1.379288000000000070e+00 -3.058968999999999827e+00 3.769850000000000145e-01 1.377369999999999983e+00 8.389539999999999775e-01 1.662025000000000086e+00 -1.273867000000000083e+00 2.004596999999999962e+00 5.578920000000000545e-01 -1.963170000000000082e+00 -9.044240000000000057e-01 -3.587839999999999918e-01 -3.013779999999999792e-01 1.092723000000000111e+00 5.282970000000000166e-01 2.961960000000000148e-01 1.711152999999999924e+00 2.727220000000000200e-01 -4.593030000000000168e-01 -8.476949999999999763e-01 -1.569059999999999899e-01 8.021650000000000169e-01 -4.721580000000000221e-01 -8.593960000000000488e-01 -7.586460000000000425e-01 7.421729999999999716e-01 2.210167000000000215e+00 -4.459080000000000266e-01 8.129089999999999927e-01 5.912319999999999798e-01 7.574079999999999702e-01 -9.578879999999999617e-01 4.042430000000000190e-01 -1.281147000000000036e+00 -2.207199999999999995e-01 -1.826073000000000057e+00 -1.534729999999999983e-01 -5.545139999999999514e-01 -2.370150000000000035e-01 8.080840000000000245e-01 -1.484070999999999918e+00 -9.161449999999999871e-01 -2.514475000000000016e+00 4.286460000000000270e-01 -1.514733000000000107e+00 1.734209999999999918e-01 3.390839999999999965e-01 2.444526999999999894e+00 -1.778000000000000025e+00 1.997949999999999893e+00 -2.873410000000000131e-01 2.550212999999999841e+00 -4.598309999999999897e-01 4.002580000000000027e-01 -1.064709999999999962e-01 -5.301479999999999526e-01 -1.407661999999999969e+00 2.952223000000000042e+00 -1.853944000000000036e+00 -1.878789000000000042e+00 -2.207469999999999988e-01 1.669375999999999971e+00 9.200770000000000337e-01 -3.124524000000000079e+00 1.754680000000000129e-01 -8.786859999999999671e-01 -1.547560000000000047e-01 1.703645000000000076e+00 1.080753000000000075e+00 2.434663000000000022e+00 2.664059999999999762e-01 9.314489999999999714e-01 1.098850000000000104e+00 2.564353999999999800e+00
5.110839999999999828e-01 7.676688999999999652e+00 -3.350759999999999850e-01 -2.517700000000000146e-02 -1.493216000000000099e+00 3.737620000000000164e+00 -1.294929999999999970e-01 8.559889999999999999e-01 9.493780000000000552e-01 -7.612459999999999782e-01 -3.854093999999999909e+00 -3.700899999999999745e-01 1.136240000000000028e-01 -1.923630000000000062e-01 5.625630000000000353e-01 2.594164000000000136e+00 -7.440900000000000292e-02 2.144880999999999815e+00 -1.317716000000000109e+00 2.244673000000000140e+00 4.183105000000000295e+00 5.983739999999999615e-01 5.130400000000000238e-02 1.420112999999999959e+00 -4.741400000000000059e-01 -1.361564999999999914e+00 -3.857550000000000145e-01 -4.223729999999999984e-01 -1.510819999999999941e-01 6.479799999999999449e-02 1.453730000000000022e-01 -2.706605000000000150e+00 -1.172198999999999991e+00 2.166917999999999900e+00 -1.210553999999999908e+00 -2.043699000000000154e+00 8.120249999999999968e-01 -5.054809999999999581e-01 -6.779159999999999631e-01 2.019594000000000111e+00 1.106130999999999975e+00 2.766390000000000238e-01 1.256728999999999985e+00 -2.122650000000000092e-01 -1.335312999999999972e+00 -2.885397999999999907e+00 6.067700000000000177e-02 1.249177999999999900e+00 2.258268000000000164e+00 2.506644999999999790e+00 1.238715000000000011e+00 1.810564999999999980e+00 -2.953129999999999922e-01 4.268779999999999797e-01 1.613566000000000056e+00 -9.307809999999999695e-01 -2.735558999999999852e+00 2.703869999999999885e-01 -1.099059999999999926e+00 2.103593000000000046e+00 -2.108210999999999835e+00 -6.746350999999999765e+00 4.514580000000000259e-01 6.530500000000000194e-01 -1.307598999999999956e+00 1.727090000000000014e-01 -1.854703999999999908e+00 8.292180000000000106e-01 -2.321991999999999834e+00 1.194250000000000034e-01 -6.446800000000000308e-01 -7.313999999999999668e-02 -2.174821000000000115e+00 -1.110144000000000020e+00 -3.951010000000000133e+00 -1.543346000000000107e+00 4.177230000000000110e-01 -6.765510000000000135e-01 -5.692949999999999955e-01 1.271962000000000037e+00 1.105083000000000037e+00 2.504815999999999931e+00 2.860389999999999877e-01 -1.242769999999999986e-01 -8.564519999999999911e-01 -2.910629999999999828e+00 -1.245042999999999900e+00 -1.910517999999999939e+00 1.288230999999999904e+00 -1.039034999999999931e+00 -2.323850000000000082e-01 1.281636999999999915e+00 1.802721999999999936e+00 -1.406722999999999946e+00 -8.062749999999999639e-01 -6.340409999999999657e-01 2.966630000000000100e-01 -2.503989999999999827e-01 1.033720999999999890e+00 -5.965409999999999879e-01 2.095288000000000039e+00 1.338441999999999910e+00 4.491020000000000012e-01 5.513933999999999891e+00 -4.287400000000000100e-01 1.768000000000000016e+00 -1.307879000000000014e+00 -2.368316000000000088e+00 5.035999999999999678e-03 -3.869100000000000317e-02 -4.769369999999999998e-01 1.659235999999999933e+00 8.332420000000000382e-01 -1.327840000000000131e-01 -1.946390000000000065e+00 2.047114999999999796e+00 -2.914189999999999836e-01 8.114310000000000134e-01 -3.291790999999999912e+00 4.603360000000000229e-01 -8.734129999999999949e-01 1.200185000000000057e+00 -3.479820000000000135e-01 -9.662279999999999758e-01 -5.489600000000000035e-02 -1.466161999999999965e+00 -2.286878000000000188e+00 2.296209999999999862e+00 1.041647999999999907e+00 1.571328000000000058e+00 5.279779999999999474e-01 -5.480040000000000466e-01 2.446956000000000131e+00 -3.678100000000000258e-01 -1.372014999999999985e+00 -2.299955000000000194e+00 -5.069000000000000172e-01 -1.042278000000000038e+00 -8.143080000000000318e-01 -9.600379999999999470e-01 1.831754000000000104e+00
3.035320000000000240e-01 -1.485124000000000111e+00 2.884917000000000176e+00 4.155909999999999882e-01 -2.594910000000000272e-01 -2.007779999999999898e+00 1.500488000000000044e+00 -3.025280000000000191e-01 -4.455919999999999881e-01 -2.496312999999999782e+00 -1.272659999999999902e-01 2.822790000000000021e-01 -4.202980000000000049e-01 1.258793000000000051e+00 -2.911229000000000067e+00 2.345880999999999883e+00 -1.697832999999999926e+00 5.326530000000000431e-01 -5.074239999999999862e-01 7.096679999999999655e-01 -7.634900000000000020e-02 1.917424000000000017e+00 -1.142239999999999922e+00 2.975692000000000004e+00 2.057876999999999956e+00 -4.389290000000000136e-01 8.984659999999999869e-01 1.561635000000000106e+00 1.848292999999999964e+00 -2.675089999999999968e-01 2.977196000000000176e+00 -2.214843999999999813e+00 1.482604999999999951e+00 -3.023426999999999865e+00 -6.562000000000000124e-03 -6.527859999999999774e-01 5.334370000000000500e-01 -4.876499999999999724e-01 -1.292245000000000088e+00 -1.448639000000000010e+00 6.319299999999999917e-01 -5.491019999999999790e-01 -1.876835000000000031e+00 -2.611791999999999891e+00 3.082904999999999784e+00 -1.360738999999999921e+00 8.646840000000000082e-01 1.241772000000000098e+00 -3.512554999999999872e+00 2.724832999999999839e+00 5.771330000000000071e-01 2.493517000000000206e+00 6.407899999999999707e-02 -1.217022999999999966e+00 -1.618884999999999907e+00 -6.388369999999999882e-01 -1.080773999999999901e+00 -9.303839999999999888e-01 7.904940000000000300e-01 1.059004999999999974e+00 3.806140000000000079e-01 2.562409999999999854e+00 -1.756269999999999998e+00 -9.902720000000000411e-01 -5.393759999999999666e-01 -5.463160000000000238e-01 2.347083000000000030e+00 -1.932183999999999902e+00 -6.800799999999999901e-02 -3.578489999999999727e-01 -1.394700000000000106e-01 -6.634830000000000449e-01 1.264413000000000009e+00 -1.052237000000000089e+00 -3.462500000000000300e-02 1.900007999999999919e+00 -9.522559999999999913e-01 -4.078760000000000163e-01 2.165474999999999817e+00 -1.021816000000000058e+00 9.940799999999999637e-02 1.574197999999999986e+00 -4.405270000000000019e-01 -1.255689999999999973e+00 2.999642000000000142e+00 1.174447999999999936e+00 2.045075000000000198e+00 1.724693000000000032e+00 3.585929999999999951e-01 1.097325000000000106e+00 -8.837770000000000348e-01 -8.710229999999999917e-01 -1.584699999999999998e-02 1.645504000000000078e+00 -3.433490000000000153e-01 1.614754000000000023e+00 1.251909999999999967e-01 7.133589999999999653e-01 -5.504520000000000524e-01 -1.245816999999999952e+00 -8.499910000000000521e-01 1.100398999999999905e+00 -2.453180000000000138e+00 -1.572050000000000114e-01 1.510779999999999901e-01 8.711729999999999752e-01 -1.211770000000000069e-01 -8.440720000000000445e-01 -3.006031000000000120e+00 2.755869999999999820e+00 -3.666139999999999954e-01 -1.157284999999999897e+00 -3.215691000000000077e+00 -7.519949999999999690e-01 -5.771039999999999504e-01 9.789269999999999916e-01 1.766597999999999891e+00 -1.333431000000000033e+00 1.704609000000000041e+00 -1.119104000000000099e+00 -1.053255999999999970e+00 7.007440000000000335e-01 1.558983999999999925e+00 3.910139999999999727e-01 2.580303999999999931e+00 -7.702649999999999775e-01 -3.818250000000000255e-01 -1.309603000000000073e+00 -6.163790000000000102e-01 -1.026963999999999988e+00 2.866219999999999879e-01 -6.558349999999999458e-01 -7.458069999999999977e-01 1.884290000000000131e-01 -2.471252999999999922e+00 -2.455700000000000105e-01 1.360411999999999955e+00 1.658600000000000005e-02 -8.419170000000000265e-01 1.015000000000000069e-01 -1.073159999999999892e+00
-1.110114000000000045e+00 7.916739999999999888e-01 5.446900000000000075e-01 1.328132000000000090e+00 -1.855901000000000023e+00 2.740599999999999981e-02 -7.888910000000000089e-01 -4.248959999999999959e-01 -7.951200000000000490e-01 -6.847440000000000193e-01 -3.476420000000000066e-01 1.010770000000000002e-01 1.914176000000000100e+00 5.116589999999999749e-01 -8.817620000000000458e-01 5.649400000000000255e-02 -2.926330999999999793e+00 6.119310000000000027e-01 -7.247460000000000013e-01 1.015824000000000060e+00 -1.044917000000000096e+00 2.249720000000000053e-01 1.067499999999999893e+00 -4.443610000000000060e-01 2.296024000000000065e+00 -1.457081000000000071e+00 -6.026489999999999903e-01 2.556220999999999854e+00 3.282299000000000078e+00 -1.607179999999999997e-01 1.325344999999999995e+00 -7.857520000000000060e-01 -1.054222999999999910e+00 8.095350000000000046e-01 -7.700519999999999587e-01 2.827509999999999746e-01 1.694153999999999938e+00 1.295159999999999922e-01 1.807549999999999990e+00 -1.752537999999999929e+00 1.104591000000000101e+00 -1.375405999999999906e+00 -2.337375000000000203e+00 -7.670050000000000479e-01 2.100226000000000148e+00 3.321099999999999747e-02 -5.210040000000000227e-01 -1.910543000000000102e+00 -4.322349999999999803e-01 1.580286999999999997e+00 8.674400000000000166e-02 -7.897229999999999528e-01 -8.714699999999999669e-01 3.976399999999999935e-01 -1.880088999999999899e+00 5.077040000000000441e-01 4.278600000000000181e-01 1.936514000000000069e+00 7.996069999999999567e-01 9.742880000000000429e-01 8.854180000000000383e-01 8.655629999999999713e-01 7.720540000000000180e-01 -2.086265000000000036e+00 2.129350000000000132e-01 5.808900000000000174e-01 -2.077204000000000050e+00 -7.073150000000000270e-01 3.241269999999999984e-01 -1.892179999999999973e+00 1.633005999999999958e+00 4.239899999999999919e-02 3.205259999999999776e-01 3.588649999999999896e-01 9.720659999999999856e-01 -5.076939999999999786e-01 -1.054902000000000006e+00 6.859060000000000157e-01 1.855072999999999972e+00 1.462350000000000039e-01 -1.105698000000000070e+00 2.998489999999999767e-01 -1.823387000000000091e+00 -9.111400000000000055e-02 1.522359999999999935e+00 2.811404000000000014e+00 5.919919999999999627e-01 2.168057999999999819e+00 -6.344299999999999939e-02 -2.992639999999999745e-01 1.109143999999999908e+00 -1.109555000000000069e+00 -4.370950000000000113e-01 1.035571999999999937e+00 7.044740000000000446e-01 5.160249999999999559e-01 -1.280636000000000108e+00 9.621300000000000407e-01 -1.284949999999999981e-01 1.147561000000000053e+00 2.431169999999999998e-01 7.961540000000000283e-01 -1.219826000000000077e+00 -6.200599999999999862e-02 -1.139985999999999944e+00 6.782270000000000243e-01 -2.079155000000000086e+00 -5.696149999999999824e-01 -3.263348000000000138e+00 5.691249999999999920e-01 1.094213000000000102e+00 -1.661002000000000089e+00 3.364030000000000076e-01 -1.423721000000000014e+00 -2.634040000000000270e-01 6.980969999999999676e-01 6.664799999999999613e-01 2.691490000000000271e-01 -7.324100000000000055e-02 -7.123599999999999377e-02 -3.399199999999999999e-01 1.379599999999999993e-01 -8.188199999999999923e-01 8.187130000000000241e-01 7.271609999999999463e-01 4.495629999999999904e-01 4.052680000000000171e-01 -2.483979999999999855e+00 1.223999999999999914e-02 -3.902160000000000073e-01 -7.017240000000000144e-01 1.177577000000000096e+00 -3.607609999999999983e-01 1.800070000000000003e-01 -2.248092999999999897e+00 -7.816429999999999767e-01 -3.145560000000000023e-01 1.378233999999999959e+00 -6.513900000000000245e-02 -1.767450000000000132e-01 -8.192469999999999475e-01
9.214020000000000543e-01 1.331771999999999956e+00 4.576169999999999960e-01 2.560479999999999978e-01 4.440999999999999809e-02 5.426480000000000192e-01 6.999700000000000366e-02 -5.963199999999999751e-02 -1.025474999999999914e+00 -1.303029999999999911e+00 -9.068019999999999969e-01 1.014847999999999972e+00 3.100709999999999855e-01 2.028530000000000055e-01 -1.234250000000000069e-01 4.304850000000000065e-01 -9.905370000000000008e-01 3.218059999999999810e-01 -3.196931000000000189e+00 -1.422396999999999911e+00 -3.511270000000000224e-01 -4.459080000000000266e-01 2.892489999999999783e-01 -1.380999999999999936e-02 -1.243170000000000108e+00 2.619000999999999912e+00 1.100565999999999933e+00 2.246074999999999822e+00 -1.746872999999999898e+00 6.137249999999999650e-01 1.605570000000000053e-01 3.966439999999999966e-01 -4.535609999999999919e-01 -1.264659999999999951e-01 1.689000000000000057e+00 -6.939309999999999645e-01 2.142749999999999932e-01 -8.133909999999999751e-01 6.513269999999999893e-01 -7.537199999999999456e-02 -8.558649999999999869e-01 -8.480619999999999825e-01 1.152001999999999970e+00 -7.715560000000000196e-01 -8.736949999999999994e-01 -1.977686000000000055e+00 2.670899999999999941e-01 4.408100000000000213e-02 -1.184266000000000041e+00 1.359914999999999985e+00 4.532889999999999975e-01 9.777510000000000367e-01 -2.790582000000000118e+00 -2.450120000000000076e-01 6.847900000000000098e-01 1.151008000000000031e+00 1.156068000000000096e+00 -9.766500000000000181e-02 -3.478893999999999931e+00 2.189260000000000095e-01 3.287370000000000014e-01 1.912369999999999903e-01 -3.973970000000000002e-01 -9.968799999999999883e-02 -5.167730000000000379e-01 -3.025639999999999996e-01 -1.377010000000000067e+00 -5.286689999999999445e-01 -1.302883000000000013e+00 1.069777999999999896e+00 -4.676400000000000001e-01 2.749400000000000177e-01 8.431279999999999886e-01 -1.808434000000000097e+00 1.017970999999999959e+00 1.068910000000000027e+00 9.338309999999999667e-01 -5.855700000000000349e-01 -1.135920000000000041e+00 1.333196999999999965e+00 -1.252999999999999947e-02 3.158551000000000109e+00 2.232889999999999875e-01 1.359563999999999995e+00 9.478360000000000118e-01 -8.255869999999999598e-01 4.672089999999999854e-01 -4.932279999999999998e-01 -5.142400000000000304e-01 1.678010000000000057e-01 -1.872924000000000033e+00 1.385831999999999953e+00 -2.348020000000000107e-01 -5.523630000000000484e-01 2.975000999999999785e+00 -5.530690000000000328e-01 8.439529999999999532e-01 5.013800000000000201e-02 4.498460000000000236e-01 -1.297387999999999986e+00 2.080258999999999858e+00 2.523699999999999902e-02 1.827920000000000100e-01 -1.756175999999999959e+00 -6.112659999999999760e-01 1.184088000000000029e+00 1.083353000000000010e+00 -1.825849999999999973e+00 -5.947899999999999715e-02 -6.770700000000000329e-02 3.355179999999999829e-01 7.886309999999999709e-01 1.093626999999999905e+00 4.687140000000000195e-01 -1.575860000000000039e-01 -5.449230000000000462e-01 -9.184090000000000309e-01 7.321579999999999755e-01 -6.925099999999999312e-02 -3.167699999999999683e-02 -2.533046000000000131e+00 1.432925000000000004e+00 -9.879010000000000291e-01 -3.409079999999999888e-01 -2.215632999999999964e+00 1.334029999999999938e-01 6.213400000000000173e-02 -5.511430000000000495e-01 -2.979260000000000241e-01 -3.240000000000000150e-04 -2.112083000000000155e+00 9.874640000000000084e-01 -8.684509999999999730e-01 2.162031999999999954e+00 -4.854410000000000114e-01 7.899760000000000115e-01 1.525325000000000042e+00 -7.470419999999999838e-01 1.014685000000000059e+00 -6.198999999999999649e-03 1.659858000000000056e+00
4.161349999999999771e-01 5.873939999999999717e-01 -4.417349999999999888e-01 6.094070000000000320e-01 3.796550000000000202e-01 -1.363274000000000097e+00 2.928338000000000108e+00 -1.478289999999999882e-01 5.694519999999999582e-01 -1.312240000000000073e-01 -2.855889999999999818e-01 3.463299999999999712e-02 -9.403999999999999165e-03 5.892840000000000300e-01 1.633064000000000071e+00 -1.882810000000000039e-01 1.682420000000000027e-01 -1.433753999999999973e+00 9.131150000000000100e-01 1.197940999999999923e+00 -1.708870000000000111e-01 9.458159999999999901e-01 -9.211470000000000491e-01 -6.622999999999999721e-02 -5.119839999999999947e-01 -4.768900000000000222e-02 -1.619485000000000063e+00 -2.485895999999999884e+00 1.962929999999999953e-01 -5.880060000000000286e-01 1.430230000000000112e-01 -7.126259999999999817e-01 -1.324662999999999924e+00 -4.510500000000000065e-01 1.462310999999999916e+00 2.454801999999999929e+00 3.971779999999999755e-01 -2.490499999999999936e-01 2.551999999999999824e-01 3.020820000000000172e-01 -4.383619999999999739e-01 -5.651810000000000445e-01 -6.635720000000000507e-01 4.868000000000000105e-01 1.658676999999999957e+00 3.461899999999999977e-01 -6.593959999999999821e-01 -4.379469999999999752e-01 1.377269000000000077e+00 6.948320000000000052e-01 1.884209000000000023e+00 -5.412470000000000336e-01 1.828519999999999868e-01 2.257178999999999824e+00 -6.332980000000000276e-01 -1.106292000000000053e+00 1.001070000000000015e-01 -2.359135000000000204e+00 -7.227689999999999948e-01 -7.311860000000000026e-01 -8.934569999999999457e-01 5.112480000000000357e-01 -1.171709999999999974e-01 8.634340000000000348e-01 -3.483629999999999782e-01 -1.970215000000000050e+00 5.839010000000000034e-01 -7.808869999999999978e-01 -3.607560000000000211e-01 -2.552919999999999856e+00 9.253599999999999326e-02 2.623929999999999874e-01 -7.906039999999999734e-01 2.917549999999999866e-01 1.302912000000000070e+00 -1.016216999999999926e+00 -1.752003999999999895e+00 4.246199999999999974e-02 8.799999999999999771e-05 -2.552630000000000177e-01 3.325029999999999930e-01 -9.185900000000000176e-01 4.873500000000000054e-01 5.601049999999999640e-01 6.311350000000000016e-01 3.599499999999999922e-02 -3.229639999999999733e-01 1.242666000000000048e+00 6.948699999999999322e-02 8.346440000000000525e-01 4.456430000000000113e-01 -8.960860000000000491e-01 1.150622999999999951e+00 2.862378000000000089e+00 -1.579091000000000022e+00 -2.348699999999999954e-01 1.231325000000000003e+00 8.283600000000000685e-02 1.094548999999999994e+00 -3.992470000000000185e-01 3.348755000000000148e+00 6.732499999999999596e-02 -5.823310000000000430e-01 -7.361700000000000188e-02 1.099925999999999959e+00 3.144060000000000188e-01 -1.235676999999999914e+00 -6.412940000000000307e-01 1.677829999999999933e+00 3.889100000000000196e-02 -3.174790000000000112e-01 -7.646539999999999448e-01 1.490906000000000065e+00 -6.800680000000000058e-01 7.853040000000000020e-01 1.972409999999999997e-01 -2.270320000000000116e-01 3.467419999999999947e-01 -2.459459999999999980e-01 -1.826670000000000016e+00 -3.734040000000000137e-01 -1.673219999999999985e-01 5.569960000000000466e-01 -5.532500000000000195e-01 1.419721000000000011e+00 3.165350000000000108e-01 -1.209376999999999924e+00 -4.636310000000000153e-01 -1.798065999999999942e+00 -1.525229999999999919e-01 -1.908986999999999989e+00 6.263480000000000159e-01 1.495084000000000080e+00 8.905589999999999895e-01 9.719600000000000461e-02 -2.501342999999999872e+00 5.048329999999999762e-01 -1.134859000000000062e+00 -1.754809999999999981e-01 -4.100920000000000121e-01 -8.180479999999999974e-01
2.392412000000000205e+00 -4.580300000000000343e-02 1.856180000000000052e-01 1.328813000000000022e+00 2.791628000000000220e+00 -7.723510000000000097e-01 3.622154000000000096e+00 -1.076696000000000097e+00 3.392950000000000133e-01 1.013711999999999946e+00 -1.459540000000000004e-01 8.758789999999999631e-01 -1.905435999999999908e+00 -6.034570000000000212e-01 -1.127507999999999955e+00 -6.844010000000000371e-01 -9.490070000000000450e-01 5.376379999999999493e-01 -1.099045999999999967e+00 7.872569999999999846e-01 1.014062000000000019e+00 1.447931000000000079e+00 8.836429999999999563e-01 1.334294000000000091e+00 -1.012720999999999982e+00 1.407440999999999942e+00 -3.220149999999999957e-01 -1.402925999999999895e+00 -7.480590000000000295e-01 1.301260000000000083e+00 1.351126000000000049e+00 7.187519999999999465e-01 -6.662280000000000424e-01 2.018546000000000173e+00 5.027989999999999959e-01 -3.961790000000000034e-01 5.056019999999999959e-01 -1.218936000000000019e+00 -1.502308999999999894e+00 1.781250000000000056e-01 -1.045110999999999901e+00 1.307766999999999902e+00 -3.142358999999999902e+00 -1.730836999999999959e+00 1.824842999999999993e+00 7.048670000000000213e-01 -2.200769999999999949e-01 2.697930000000000050e-01 6.210811999999999777e+00 3.318116999999999983e+00 7.888629999999999809e-01 -1.168271000000000059e+00 2.983520000000000061e-01 -5.577410000000000423e-01 7.346099999999999852e-02 -4.881699999999999928e-01 -1.516490000000000060e-01 3.083722999999999992e+00 -8.576529999999999987e-01 -9.992130000000000178e-01 4.249279999999999724e-01 3.254862000000000144e+00 -6.443269999999999831e-01 1.684647999999999923e+00 9.199260000000000215e-01 3.964230000000000254e-01 -3.260839999999999850e-01 8.467189999999999994e-01 8.681330000000000435e-01 -1.600085999999999897e+00 3.677440000000000153e-01 -6.880600000000000604e-02 1.065396000000000010e+00 3.137970999999999844e+00 -1.069393999999999956e+00 -4.427940999999999683e+00 -3.708231000000000055e+00 1.041099999999999942e-01 -1.684323999999999932e+00 -2.439821999999999935e+00 8.504899999999999682e-01 -7.394600000000000062e-01 2.583277999999999963e+00 -2.226214999999999833e+00 2.612839999999999829e+00 6.644919999999999716e-01 -5.526609999999999578e-01 -1.209883999999999959e+00 -6.853590000000000515e-01 -4.507889999999999953e-01 -1.782832999999999890e+00 -1.624060000000000059e+00 1.583442000000000016e+00 -1.656739999999999879e-01 6.283009999999999984e-01 1.434199000000000002e+00 1.352030000000000065e+00 -2.797480999999999884e+00 -3.297911000000000037e+00 -2.140909000000000173e+00 -3.832820000000000116e-01 5.939349999999999907e-01 -6.330706000000000166e+00 -4.523638000000000048e+00 -3.527969000000000133e+00 1.865269999999999984e+00 1.765641999999999934e+00 -1.348292000000000046e+00 -2.043302000000000174e+00 1.761176000000000075e+00 -4.856130000000000169e-01 2.725560000000000205e-01 -1.337760000000000060e-01 1.126239999999999908e+00 3.692464000000000190e+00 2.619990000000000041e+00 7.877659999999999663e-01 -2.113347000000000087e+00 1.700780000000000070e-01 9.987099999999999866e-01 6.949800000000000422e-01 -1.357707999999999915e+00 1.986730000000000107e+00 -2.383656000000000219e+00 -9.788499999999999979e-02 1.220861999999999892e+00 1.779070000000000096e-01 -4.107520000000000060e+00 -1.482869999999999910e+00 -4.125300000000000078e-01 1.857509000000000077e+00 5.235980000000000079e-01 -8.069340000000000401e-01 1.379032999999999953e+00 -1.382486000000000104e+00 1.422673999999999994e+00 -2.552836000000000105e+00 1.326711999999999891e+00 -6.141489999999999450e-01 8.766479999999999828e-01 -5.481380000000000141e-01
-1.268904999999999950e+00 -1.224406000000000105e+00 1.337320000000000064e+00 1.854697000000000040e+00 -1.923238999999999921e+00 1.284410999999999969e+00 1.373301000000000105e+00 -6.543379999999999752e-01 2.850083999999999840e+00 -2.104054999999999787e+00 1.019859999999999933e-01 -1.590074999999999905e+00 8.890609999999999902e-01 -1.589204999999999979e+00 -8.192120000000000513e-01 3.556929999999999814e-01 -3.038310000000000177e-01 -1.346600000000000054e-02 3.814130000000000020e-01 4.067516999999999605e+00 5.124539999999999651e-01 -7.557260000000000089e-01 4.241126999999999647e+00 -4.904669999999999863e-01 1.633604999999999974e+00 -6.450960000000000027e-01 1.832140000000000102e+00 -9.007300000000000306e-01 7.980199999999999516e-01 -3.245979999999999976e-01 1.210037999999999947e+00 -2.441711000000000187e+00 1.690913000000000110e+00 -4.454570999999999614e+00 8.904900000000000315e-02 4.425930000000000142e-01 -6.010569999999999524e-01 3.177869999999999862e-01 -2.053501999999999938e+00 3.834759999999999835e-01 1.386913000000000062e+00 -3.367599999999999760e-02 -5.095539999999999514e-01 -4.490395999999999610e+00 2.070329999999999948e-01 3.793836000000000208e+00 3.426174000000000053e+00 -4.060329999999999773e-01 4.013780000000000125e-01 2.964890000000000025e-01 -8.989559999999999773e-01 -1.183370000000000033e+00 -4.572829999999999950e-01 1.700540000000000107e-01 -4.667879999999999807e-01 2.422963000000000200e+00 -6.323769999999999669e-01 1.135540000000000022e-01 -1.902945000000000109e+00 -8.927410000000000068e-01 -2.117100999999999900e+00 4.151480000000000170e-01 -2.410000000000000033e-04 -1.347496999999999945e+00 -3.091889999999999916e-01 3.747099999999999875e-01 -2.806089999999999973e-01 -2.503120000000000012e+00 -9.869600000000000595e-02 4.911661999999999750e+00 -2.769461000000000173e+00 7.254739999999999522e-01 -2.933819999999999761e-01 3.977970000000000117e-01 -3.446389999999999731e-01 -8.963000000000000134e-02 3.358789999999999831e-01 -2.562498999999999860e+00 4.150440000000000240e-01 4.309799999999999742e-01 -2.329620999999999942e+00 1.976670000000000094e-01 2.109367000000000214e+00 -1.046654999999999891e+00 -3.153954000000000146e+00 8.672020000000000284e-01 1.137944000000000067e+00 1.928428000000000031e+00 -6.620009999999999506e-01 -2.192792999999999992e+00 1.595031000000000088e+00 2.225865999999999900e+00 1.197381999999999946e+00 -1.274717000000000100e+00 1.757130000000000081e-01 -3.427105000000000068e+00 -8.766799999999999593e-02 -2.615999999999999992e-01 -1.559649999999999925e-01 -2.532669999999999977e+00 -4.728680000000000105e-01 8.027360000000000051e-01 8.973940000000000250e-01 5.442690000000000028e-01 -2.451359999999999928e-01 2.189461999999999797e+00 2.126923000000000119e+00 -4.374560000000000115e-01 -2.065824000000000105e+00 -6.126460000000000239e-01 -2.282599999999999907e-02 5.935329999999999773e-01 2.649896000000000029e+00 1.550505999999999940e+00 -1.761060000000000125e-01 4.084999999999999742e-01 1.866084000000000076e+00 1.520529999999999937e+00 5.342259999999999787e-01 -2.401189999999999991e-01 -1.270340000000000080e-01 -4.638610000000000233e-01 1.300588000000000077e+00 -2.450696000000000208e+00 -2.211956999999999951e+00 1.298076999999999925e+00 -3.982049999999999756e-01 -7.081159999999999677e-01 3.619640000000000080e-01 1.004777000000000031e+00 1.083530000000000049e-01 1.372556000000000109e+00 2.334058000000000188e+00 -3.051159999999999983e-01 6.371489999999999654e-01 -6.018499999999999961e-01 9.284569999999999768e-01 -1.117312000000000083e+00 -7.359409999999999563e-01 -4.494218000000000046e+00 -5.760049999999999892e-01