-4.897389999999999799e-01 7.362570000000000503e-01 6.727720000000000367e-01 -8.461399999999999477e-02 3.689479999999999982e-01 -8.931750000000000522e-01 -6.217639999999999834e-01 -1.333620000000000083e-01 4.241699999999999915e-01 -2.190449999999999897e-01 4.304890000000000105e-01 1.235373000000000054e+00 -8.156379999999999741e-01 2.064600000000000046e-01 1.162395000000000067e+00 7.025350000000000206e-01 1.021071999999999980e+00 -9.371789999999999843e-01 -2.026784000000000141e+00 9.646100000000000507e-02 -6.741599999999999815e-01 -2.569739999999999802e-01 1.474129999999999885e-01 6.782179999999999875e-01 -7.970599999999999907e-01 -8.135259999999999714e-01 4.160070000000000157e-01 1.520799999999999930e-01 1.061799999999999966e-01 -6.330600000000000116e-02 -8.404399999999999371e-02 1.137383000000000033e+00 -4.345310000000000006e-01 1.962865000000000082e+00 -1.120077999999999907e+00 6.666180000000000438e-01 -2.309009999999999951e-01 -1.218402999999999903e+00 2.638420000000000210e-01 -2.794130000000000225e-01 -4.350689999999999835e-01 5.474879999999999747e-01 3.152119999999999922e-01 -1.744080000000000075e-01 -1.146833999999999909e+00 1.377472999999999947e+00 3.570690000000000253e-01 -1.098092999999999986e+00 2.769750000000000267e-01 1.122144999999999948e+00 8.533619999999999539e-01 -6.276359999999999717e-01 8.181700000000000084e-02 -7.098280000000000145e-01 -3.557299999999999907e-01 -8.901689999999999880e-01 7.468780000000000419e-01 -4.178959999999999897e-01 4.143439999999999901e-01 -2.970110000000000250e-01 4.370339999999999780e-01 -4.327820000000000000e-01 -8.892050000000000232e-01 2.680210000000000092e-01 5.309340000000000170e-01 6.856280000000000152e-01 -3.765519999999999978e-01 -3.219750000000000112e-01 -9.444040000000000212e-01 9.987289999999999779e-01 -1.609680000000000000e-01 5.476309999999999789e-01 3.260299999999999865e-01 1.644500000000000128e-01 -3.100939999999999808e-01 7.692510000000000181e-01 3.019000000000000156e-02 5.111050000000000315e-01 -1.227962999999999916e+00 -3.113300000000000095e-02 1.322589999999999877e-01 9.955400000000000360e-02 1.320551999999999948e+00 3.444599999999999884e-01 2.590319999999999845e-01 -2.015899999999999984e-02 -2.390279999999999905e-01 -1.208002000000000020e+00 6.647690000000000543e-01 -9.085210000000000230e-01 -7.012899999999999689e-02 -4.174120000000000053e-01 -3.130560000000000009e-01 3.905420000000000003e-01 1.454000000000000084e-02 -1.527303999999999995e+00 -1.279052000000000078e+00 -3.619350000000000067e-01 2.512240000000000029e-01 9.154440000000000355e-01 3.436119999999999730e-01 2.143540999999999919e+00 1.166780000000000039e-01 5.621519999999999850e-01 -7.272760000000000336e-01 3.940960000000000019e-01 1.204128000000000087e+00 -1.447214999999999918e+00 -1.396499999999999964e-01 3.030439999999999801e-01 1.479511999999999938e+00 7.026200000000000501e-02 6.959940000000000015e-01 -2.388780000000000070e-01 -1.955580000000000096e-01 -1.098950000000000066e-01 3.133659999999999779e-01 4.967119999999999869e-01 -8.832700000000000273e-02 5.987190000000000012e-01 2.582100000000000020e-02 -9.790290000000000381e-01 -1.410649999999999959e+00 -3.435499999999999665e-02 2.090370000000000006e-01 6.915590000000000348e-01 5.363409999999999567e-01 -3.265000000000000124e-01 7.567519999999999802e-01 8.721199999999999786e-02 -3.411980000000000013e-01 -2.485946000000000211e+00 4.132549999999999835e-01 1.505300000000000041e-02 1.146469999999999989e-01 2.234019999999999895e-01 -6.812399999999999567e-01 1.011085000000000012e+00 -2.135809999999999931e-01 -1.118336999999999914e+00 -2.284900000000000125e-02 -1.511560000000000126e-01 -3.618190000000000017e-01 -4.566870000000000096e-01 -1.488160000000000038e-01 -7.984599999999999476e-01 6.092530000000000445e-01 1.241846000000000005e+00 -8.423700000000000632e-02 -8.692199999999999926e-02 -7.542919999999999625e-01 -2.017160000000000064e-01 4.587430000000000119e-01 7.096700000000000230e-02 -5.128200000000000119e-02 -4.112620000000000164e-01 -5.128319999999999546e-01 2.173559999999999937e-01 -8.881369999999999543e-01 2.401699999999999946e-01 -3.538899999999999685e-02 2.969350000000000045e-01 4.516379999999999839e-01 -7.930409999999999959e-01 9.480110000000000481e-01
-3.694399999999999767e-02 -3.083429999999999782e-01 -2.053000000000000137e-03 -3.873929999999999874e-01 -3.129739999999999744e-01 -1.869949999999999946e-01 2.875499999999999931e-02 -6.889279999999999848e-01 -1.851629999999999943e-01 5.767090000000000272e-01 -8.250399999999999956e-01 -1.114580000000000015e-01 -1.054418999999999995e+00 8.059389999999999610e-01 -2.886899999999999883e-02 -1.025290000000000035e+00 8.188400000000000123e-01 -8.673929999999999696e-01 9.695679999999999854e-01 1.047037999999999913e+00 -1.192817999999999934e+00 -1.440115000000000034e+00 -2.131939999999999946e-01 -1.400470000000000048e-01 -1.080870999999999915e+00 -2.131399999999999961e-01 3.426999999999999925e-03 1.300975999999999910e+00 8.573629999999999862e-01 -3.288559999999999817e-01 8.858660000000000423e-01 7.633499999999999730e-01 3.375999999999999834e-02 -8.803710000000000147e-01 -6.245899999999999785e-01 2.286350000000000049e-01 -4.979310000000000125e-01 -8.939279999999999449e-01 3.971189999999999998e-01 9.393259999999999943e-01 -7.725039999999999685e-01 2.478799999999999892e-01 1.808639999999999970e-01 -8.251220000000000221e-01 -5.941330000000000222e-01 -1.390339999999999909e-01 5.655000000000000304e-03 -1.999980000000000091e-01 -2.169033000000000211e+00 -5.316440000000000055e-01 -8.105900000000000327e-01 1.313159999999999883e-01 -5.310160000000000435e-01 -1.744239999999999957e-01 -1.848730000000000095e-01 -3.710490000000000177e-01 5.124339999999999451e-01 -5.587600000000000205e-02 4.254379999999999828e-01 6.464389999999999858e-01 -1.073650999999999911e+00 -6.400639999999999663e-01 1.036828000000000083e+00 3.081369999999999942e-01 1.192679000000000045e+00 -3.082579999999999765e-01 1.487110000000000098e-01 -7.647549999999999626e-01 -8.871590000000000309e-01 -3.587989999999999791e-01 -2.726339999999999875e-01 -1.450009999999999910e-01 -1.085205999999999893e+00 2.301400000000000112e-01 -3.539019999999999944e-01 -4.068100000000000049e-01 6.165810000000000457e-01 -7.021380000000000399e-01 3.640200000000000102e-01 -3.381460000000000021e-01 6.567640000000000144e-01 2.430998000000000214e+00 3.768329999999999735e-01 6.049860000000000237e-01 -1.293130000000000113e-01 -5.726569999999999716e-01 1.915540000000000020e-01 1.218183000000000016e+00 -7.582860000000000156e-01 7.072709999999999830e-01 1.275028000000000050e+00 -1.058249999999999913e+00 -1.318035000000000068e+00 8.721219999999999528e-01 -7.240689999999999626e-01 -8.004670000000000396e-01 1.539752000000000010e+00 1.849679999999999935e-01 8.709299999999999820e-01 -5.916059999999999652e-01 6.006909999999999750e-01 6.039799999999999613e-01 1.295414000000000065e+00 -5.014929999999999666e-01 -1.217969999999999997e+00 -1.064480000000000010e-01 -1.182474000000000025e+00 2.959999999999999849e-04 1.282907999999999937e+00 1.329059999999999964e-01 4.170019999999999838e-01 -4.477479999999999793e-01 -2.002190000000000081e-01 -1.273946999999999941e+00 1.048295999999999895e+00 3.394249999999999767e-01 6.967440000000000300e-01 -1.043479999999999963e-01 6.426429999999999643e-01 1.061169999999999947e+00 -9.551589999999999803e-01 1.612424999999999997e+00 1.120562000000000058e+00 -4.618799999999999989e-02 -1.290345000000000075e+00 -5.377840000000000398e-01 1.141583999999999932e+00 1.481235000000000079e+00 1.369196000000000080e+00 -5.501880000000000104e-01 -8.093590000000000506e-01 -1.650610000000000133e-01 1.136886000000000063e+00 7.969870000000000010e-01 6.042950000000000266e-01 -1.138007999999999909e+00 4.755240000000000022e-01 -1.011641999999999930e+00 -1.010888000000000009e+00 -1.112940000000000040e-01 9.506210000000000493e-01 -4.918379999999999974e-01 -1.156349999999999989e+00 -1.428042999999999951e+00 4.673299999999999677e-02 1.175380000000000036e-01 -4.824760000000000160e-01 -3.080430000000000113e-01 4.253660000000000219e-01 -4.648200000000000248e-02 1.044208000000000025e+00 1.136914999999999898e+00 7.307550000000000434e-01 -8.524969999999999493e-01 1.125296000000000074e+00 6.797499999999999654e-01 -1.227160000000000029e+00 -1.333830000000000016e-01 -8.581830000000000291e-01 -6.913960000000000106e-01 1.587464999999999904e+00 1.559042000000000039e+00 3.610849999999999893e-01 -1.739890000000000048e-01 4.279040000000000066e-01
1.462401000000000062e+00 -7.261009999999999964e-01 2.288734999999999964e+00 -6.874280000000000390e-01 1.672204999999999941e+00 7.441510000000000069e-01 -5.766710000000000447e-01 -5.430199999999999472e-01 6.091339999999999533e-01 1.559620999999999924e+00 5.360099999999999865e-01 -1.281276000000000082e+00 -6.731920000000000126e-01 -1.877305000000000001e+00 -3.222907999999999884e+00 -5.539380000000000415e-01 4.534436999999999607e+00 2.731839999999999824e-01 5.088819999999999455e-01 -1.005443000000000087e+00 -3.375750000000000139e-01 7.375429999999999486e-01 1.696148999999999907e+00 -1.353126999999999969e+00 -5.775749999999999496e-01 7.196719999999999784e-01 7.321910000000000363e-01 4.072910000000000141e-01 2.979089999999999794e-01 1.574129999999999974e-01 9.577409999999999535e-01 -2.339731000000000005e+00 4.061530999999999558e+00 -3.928070000000000173e-01 -1.944253000000000009e+00 1.471800000000000053e-01 2.451840000000000130e-01 -7.181710000000000038e-01 -2.479347000000000190e+00 1.063911000000000051e+00 -3.046010000000000106e-01 -1.116168000000000049e+00 -6.781509999999999483e-01 -1.174560000000000048e-01 2.236882000000000037e+00 -1.181381000000000014e+00 1.526458000000000093e+00 -2.683699999999999974e-02 -1.039150000000000018e+00 -4.210454000000000363e+00 -5.134100000000000330e-01 -1.886079999999999979e-01 -1.468717999999999968e+00 -1.726253999999999955e+00 3.814210000000000100e-01 6.819169999999999954e-01 -5.955390000000000406e-01 1.045878000000000085e+00 -2.394807000000000130e+00 2.706890000000000129e-01 2.362858999999999821e+00 -1.037196000000000007e+00 -1.733200000000000074e+00 -1.495031999999999917e+00 2.179439999999999988e-01 -1.549843000000000082e+00 7.021800000000000264e-01 7.643879999999999564e-01 1.216469999999999940e+00 -1.532558000000000087e+00 7.857659999999999645e-01 4.100909999999999833e-01 2.278100000000000125e-01 3.082099999999999840e-01 3.898760000000000003e-01 7.371210000000000262e-01 5.197960000000000358e-01 3.098650000000000126e+00 -1.017077999999999927e+00 -1.953280000000000016e-01 1.894160000000000010e-01 3.912281000000000120e+00 -3.509280000000000177e-01 1.721111999999999975e+00 -9.877629999999999466e-01 6.836699999999999722e-02 -1.854348000000000107e+00 -1.031735999999999986e+00 -1.602829000000000059e+00 -2.304180000000000117e+00 1.658833999999999920e+00 -2.301867000000000107e+00 4.093049999999999744e-01 -5.745700000000000113e-02 1.523959000000000064e+00 9.443430000000000435e-01 2.968450000000000255e-01 -7.951759999999999939e-01 -6.391299999999999759e-01 2.026010000000000033e-01 -6.446000000000000341e-02 1.236330000000000068e-01 -1.819489999999999996e-01 1.916130000000000055e-01 -4.920869999999999966e-01 -2.109169999999999934e-01 -3.347939999999999805e-01 -3.545510000000000050e-01 1.612462999999999980e+00 1.476299000000000028e+00 -6.001760000000000428e-01 -3.557819999999999871e-01 1.261740000000000084e+00 -2.483468999999999927e+00 -7.314359999999999751e-01 2.789547000000000221e+00 -3.395750000000000157e-01 4.231969999999999898e-01 -2.496800000000000061e-02 1.399447000000000108e+00 -1.217519999999999991e-01 9.177279999999999882e-01 -1.123150000000000093e+00 -1.039894000000000096e+00 3.565969999999999973e-01 -4.179329999999999989e-01 3.636469999999999980e-01 -8.272799999999999598e-02 -9.191160000000000441e-01 5.887649999999999828e-01 -4.209200000000000164e-01 -2.494585999999999970e+00 2.462050000000000072e-01 -2.349130000000000107e-01 2.020436000000000121e+00 -1.147550999999999988e+00 -2.191409999999999858e+00 8.996250000000000080e-01 3.427089999999999859e-01 1.541292000000000106e+00 -3.636750000000000260e-01 5.292519999999999447e-01 -3.854679999999999773e-01 1.170501999999999931e+00 -8.639210000000000500e-01 8.788470000000000448e-01 -2.538650000000000073e-01 -2.320390000000000175e+00 5.313600000000000267e-02 2.849079999999999946e-01 7.633600000000000385e-01 1.331410000000000093e-01 3.224339999999999984e-01 -7.775769999999999627e-01 7.416329999999999867e-01 1.300561999999999996e+00 -1.158098999999999990e+00 1.026351999999999931e+00 1.305773000000000073e+00 -6.653869999999999507e-01 -1.004418999999999951e+00 1.499919999999999864e-01 -1.094821999999999962e+00 1.456353000000000009e+00 1.697659999999999947e+00
-8.599999999999999312e-02 1.975023999999999891e+00 -2.101919999999999900e-01 1.205036999999999914e+00 5.629680000000000240e-01 -9.538039999999999852e-01 1.075156999999999918e+00 -1.140393999999999908e+00 1.216252000000000111e+00 -1.243686000000000069e+00 -3.019220000000000237e-01 -1.008499999999999952e-01 2.765871999999999886e+00 8.858599999999999808e-02 -1.011681000000000052e+00 -2.215519999999999989e-01 8.907960000000000322e-01 -9.771370000000000333e-01 6.553930000000000033e-01 2.775999999999999995e-02 -1.494540999999999897e+00 -2.715219999999999856e-01 -5.756369999999999543e-01 8.928160000000000540e-01 -4.745039999999999814e-01 -1.149483000000000033e+00 7.853379999999999805e-01 9.819989999999999553e-01 -3.494959999999999734e-01 -3.182949999999999946e-01 -9.479950000000000321e-01 1.042510000000000048e+00 -1.621531999999999973e+00 8.064440000000000497e-01 1.791719999999999979e+00 1.408671999999999924e+00 -1.132886000000000060e+00 1.396620000000000084e-01 1.673025999999999902e+00 -1.167747000000000090e+00 4.008760000000000101e-01 -7.541700000000000070e-01 3.396890000000000187e-01 1.186139999999999972e-01 -1.150274999999999936e+00 -1.472019999999999995e-01 -8.729310000000000125e-01 -1.493410000000000015e-01 1.805895999999999946e+00 4.158859999999999779e-01 2.828240000000000198e-01 -1.068583000000000061e+00 -1.410646000000000067e+00 1.707480000000000109e+00 -1.161829999999999946e-01 -1.011031000000000013e+00 -7.467110000000000136e-01 -9.683389999999999498e-01 7.941880000000000051e-01 -1.785595000000000043e+00 1.366959000000000035e+00 2.794900000000000162e-02 1.874414000000000025e+00 -1.064815000000000067e+00 3.525699999999999668e-02 1.198941999999999952e+00 1.018539000000000083e+00 2.630390000000000228e-01 -1.701000000000000012e-01 1.540819999999999967e-01 1.999014000000000069e+00 4.139564000000000021e+00 -4.834209999999999896e-01 1.213605999999999963e+00 -7.966309999999999780e-01 7.421579999999999844e-01 -9.285679999999999490e-01 -9.473799999999999999e-01 1.520809000000000077e+00 9.704030000000000156e-01 1.300696000000000074e+00 7.701529999999999765e-01 4.996599999999999930e-01 -2.253372000000000153e+00 -1.337625000000000064e+00 1.839072000000000040e+00 1.478470000000000062e-01 -6.097500000000000142e-02 -1.348036000000000012e+00 1.910468999999999973e+00 -4.958830000000000182e-01 -1.942589999999999872e-01 -3.220049999999999857e-01 -9.705599999999999783e-01 -3.205239999999999756e-01 -9.811830000000000274e-01 -1.311881000000000075e+00 -1.053743000000000096e+00 3.896344000000000030e+00 -1.362276999999999960e+00 -6.376589999999999758e-01 1.611700000000000077e-01 -2.000780000000000058e-01 -6.054460000000000397e-01 -6.564339999999999620e-01 6.063680000000000181e-01 -2.219980000000000009e-01 6.852900000000000658e-02 5.902859999999999774e-01 4.139939999999999731e-01 -6.757640000000000313e-01 -1.191894999999999927e+00 -9.832009999999999916e-01 2.978509999999999769e-01 -8.363070000000000226e-01 1.342818999999999985e+00 -1.956895999999999969e+00 1.257187000000000054e+00 -1.801461999999999897e+00 -4.743169999999999886e-01 -1.383888000000000007e+00 -1.549196000000000017e+00 2.702060000000000017e-01 -6.638150000000000439e-01 1.770500000000000129e-01 -1.755905000000000049e+00 3.041900000000000159e-02 2.627050000000000218e-01 -3.233019999999999783e-01 1.225905999999999940e+00 -7.383380000000000498e-01 4.104289999999999883e-01 -1.674096999999999946e+00 -3.243659999999999877e-01 -7.427169999999999606e-01 -8.813590000000000035e-01 5.752680000000000016e-01 1.390586000000000100e+00 1.910361999999999894e+00 7.130220000000000447e-01 9.774129999999999763e-01 -2.635581000000000174e+00 -1.356813999999999965e+00 -3.291399999999999881e-01 3.334230000000000249e-01 9.591819999999999791e-01 -2.051699999999999913e-01 4.750380000000000158e-01 1.109890000000000043e-01 2.190989999999999882e-01 -4.152060000000000195e-01 -8.891879999999999784e-01 -1.261057000000000095e+00 1.820955000000000101e+00 4.327349999999999808e-01 -6.318310000000000315e-01 -6.452489999999999615e-01 -3.271680000000000144e-01 1.216807999999999890e+00 1.571182000000000079e+00 -3.633850000000000136e-01 3.474200000000000066e-01 4.317969999999999864e-01 3.705359999999999765e-01 -2.036862000000000172e+00
-2.006272000000000055e+00 7.135099999999999776e-01 -1.361795000000000089e+00 -6.884700000000000542e-02 9.189799999999999358e-02 -5.508269999999999555e-01 1.362562000000000051e+00 7.660909999999999664e-01 -6.720000000000000279e-03 -4.186710000000000154e-01 -1.184045999999999932e+00 5.407279999999999864e-01 6.468000000000000138e-02 -1.631829999999999947e-01 -1.403270000000000073e-01 1.090781999999999918e+00 -1.425777999999999990e+00 1.699648999999999965e+00 9.081599999999999673e-01 -6.625499999999999723e-01 1.439408000000000021e+00 -2.091847000000000012e+00 9.178420000000000467e-01 5.136199999999999793e-02 -9.286170000000000258e-01 -6.609549999999999592e-01 -2.657299999999999940e-02 5.430160000000000542e-01 -7.538850000000000273e-01 1.655035999999999952e+00 9.544460000000000166e-01 -2.304420000000000079e-01 -5.644709999999999450e-01 -4.868629999999999902e-01 1.668880000000000086e-01 -1.257943000000000033e+00 1.125950000000000006e-01 -1.239468999999999932e+00 7.282619999999999649e-01 3.735379999999999812e-01 -1.181966999999999990e+00 4.620489999999999875e-01 1.894689000000000068e+00 3.406899999999999928e-01 -1.251686000000000076e+00 5.081250000000000488e-01 -5.474649999999999794e-01 -1.176800000000000068e-01 2.252749999999999808e+00 1.562434000000000101e+00 4.877310000000000256e-01 2.355150000000000077e+00 3.161930000000000018e-01 1.910500000000000045e-02 9.003980000000000317e-01 -1.239265999999999979e+00 1.502143000000000006e+00 5.577980000000000160e-01 -5.452939999999999454e-01 -5.839609999999999523e-01 -1.818284999999999929e+00 2.102488000000000135e+00 -4.750909999999999855e-01 -2.075819999999999887e-01 8.540999999999999981e-03 -1.349954000000000098e+00 -1.198369999999999935e+00 -8.888239999999999474e-01 9.323609999999999953e-01 1.287889000000000062e+00 -1.720339999999999925e-01 4.284299999999999914e-02 -1.170563999999999938e+00 1.561325999999999992e+00 1.966229999999999922e-01 5.548450000000000326e-01 1.506029999999999869e-01 6.309339999999999948e-01 -8.029300000000000326e-02 -8.504190000000000360e-01 -6.019970000000000043e-01 2.206400000000000028e-02 -5.145669999999999966e-01 -5.940140000000000420e-01 -6.853810000000000180e-01 -4.403710000000000124e-01 1.313595999999999986e+00 4.588960000000000261e-01 1.418366000000000016e+00 -2.914599999999999969e-01 4.507180000000000075e-01 8.031570000000000098e-01 2.545229999999999992e-01 4.717410000000000214e-01 -1.195990000000000109e+00 2.323693000000000008e+00 -1.867710999999999899e+00 -1.496062999999999921e+00 -2.902640000000000220e-01 -2.127709999999999879e-01 5.924700000000000105e-02 -1.149080000000000101e+00 -1.167502999999999957e+00 3.042200000000000112e-02 7.380290000000000461e-01 6.648180000000000200e-01 -8.025079999999999991e-01 -1.191732999999999931e+00 2.373149999999999982e-01 6.750779999999999559e-01 -3.403919999999999724e-01 7.304000000000000492e-01 1.025824999999999987e+00 -2.127400000000000124e-01 -2.907109999999999972e-01 -3.740069999999999784e-01 -3.683879999999999932e-01 1.469560000000000033e-01 -9.030599999999999739e-02 -4.310869999999999980e-01 -1.117455000000000087e+00 -2.550300000000000136e-02 8.026370000000000449e-01 8.646409999999999929e-01 9.708029999999999715e-01 -2.817899999999999919e-02 2.036799999999999999e-01 -8.240650000000000475e-01 -1.046527999999999903e+00 1.175410000000000066e+00 -3.134230000000000071e-01 4.054889999999999883e-01 -6.625170000000000226e-01 5.031189999999999829e-01 -2.118059999999999943e-01 8.026400000000000201e-01 -1.912795000000000023e+00 -2.663679999999999826e+00 1.608460999999999919e+00 9.520039999999999614e-01 2.170314999999999994e+00 -1.300499999999999989e+00 1.546389999999999987e-01 -8.217980000000000285e-01 -1.651458000000000093e+00 2.620580000000000132e-01 8.429189999999999738e-01 1.261750000000000094e-01 3.730129999999999835e-01 5.312959999999999905e-01 -9.293899999999999384e-02 -2.710420000000000051e-01 -3.339250000000000274e-01 -8.332450000000000134e-01 2.193279999999999952e-01 1.439410000000000134e-01 -1.184758999999999896e+00 6.950699999999999656e-01 7.839620000000000477e-01 -1.535580000000000001e-01 5.477060000000000262e-01 -9.734150000000000302e-01 -1.988620999999999972e+00 2.617877000000000010e+00 -1.461117999999999917e+00
-3.773966000000000154e+00 1.650362000000000107e+00 -1.026396000000000086e+00 7.161650000000000515e-01 1.742434000000000038e+00 -7.267730000000000024e-01 2.991496000000000155e+00 -1.447907000000000055e+00 7.806410000000000293e-01 -7.276000000000000245e-01 -4.515970000000000262e-01 5.482099999999999751e-01 7.589669999999999472e-01 -3.417859999999999787e-01 -3.858289999999999775e-01 -2.087731999999999921e+00 1.408179999999999987e-01 -7.013789999999999747e-01 9.346259999999999568e-01 -1.595593000000000039e+00 -1.684031999999999973e+00 -1.457526000000000099e+00 1.573199999999999946e-02 -5.587699999999999889e-01 -2.631479999999999930e-01 -1.154229999999999978e-01 2.772415000000000074e+00 1.383199999999999985e-01 -1.949586999999999959e+00 1.448693000000000008e+00 -1.404759000000000091e+00 1.673753999999999964e+00 8.373829999999999885e-01 -8.143110000000000070e-01 -1.079091000000000022e+00 -1.634843000000000046e+00 5.651999999999999906e-03 1.018256999999999968e+00 1.961299999999999988e-01 -1.659181000000000017e+00 -1.136406000000000027e+00 -2.365526000000000018e+00 3.348050000000000193e-01 5.642306999999999739e+00 -3.539539999999999909e-01 -4.356349999999999945e-01 5.896550000000000402e-01 2.202126999999999946e+00 -2.204728999999999939e+00 -4.789729999999999821e-01 -1.157766999999999991e+00 -1.154376999999999986e+00 -1.024970000000000048e-01 1.016567999999999916e+00 1.262439999999999951e-01 8.012179999999999858e-01 -2.232689999999999952e-01 4.388770000000000171e-01 -5.093630000000000102e-01 -2.746699999999999836e-02 -2.931999999999999884e-02 8.000660000000000549e-01 8.746239999999999570e-01 6.893660000000000343e-01 8.572319999999999940e-01 9.537579999999999947e-01 1.834503999999999913e+00 -3.954099999999999837e-01 7.914269999999999916e-01 1.814479999999999982e-01 -2.760565000000000158e+00 2.189599999999999880e-02 -7.375660000000000549e-01 -1.107691999999999899e+00 -3.769649999999999945e-01 9.000800000000000467e-02 3.556270000000000264e-01 2.293779999999999986e-01 1.191141999999999923e+00 -5.510690000000000310e-01 -1.382161999999999891e+00 2.815240000000000187e+00 -1.571634999999999893e+00 -1.255921999999999983e+00 -1.258148000000000044e+00 1.629279999999999895e-01 -4.238669999999999938e-01 1.717827999999999911e+00 -3.627670000000000061e-01 1.899599999999999900e-02 -6.215260000000000229e-01 1.511495999999999951e+00 7.082800000000000207e-01 -4.963319999999999954e-01 1.526910999999999907e+00 8.077590000000000048e-01 -8.962369999999999504e-01 1.761174000000000017e+00 -8.805899999999999839e-02 -1.774672000000000027e+00 -2.918910000000000116e-01 1.823457000000000106e+00 1.608800000000000160e-02 -2.454270000000000063e-01 2.093773999999999802e+00 -6.244899999999999896e-01 2.036903999999999826e+00 1.290326000000000084e+00 9.280319999999999681e-01 -1.891859999999999931e-01 -1.067680000000000018e-01 -1.813903999999999961e+00 -9.695780000000000509e-01 1.417691999999999952e+00 2.033796999999999855e+00 -2.116543000000000063e+00 -2.485303000000000040e+00 -1.093161999999999967e+00 8.314369999999999816e-01 -5.858879999999999644e-01 -3.478220000000000200e-01 2.937880999999999965e+00 3.912619999999999987e-01 4.095823000000000214e+00 -1.882347999999999910e+00 7.449400000000000466e-01 -1.764839999999999964e+00 -1.708148000000000000e+00 -9.035739999999999883e-01 9.229929999999999524e-01 -3.162980000000000236e-01 -8.108279999999999932e-01 2.885130000000000194e-01 -2.413635999999999893e+00 7.853229999999999933e-01 1.633305000000000007e+00 1.657466000000000106e+00 1.669432000000000027e+00 1.460234000000000032e+00 -3.753330000000000277e-01 -3.135020000000000029e-01 -2.142777000000000154e+00 -4.374520000000000075e-01 -1.084719999999999906e+00 5.155939999999999968e-01 -1.435613999999999946e+00 -8.613370000000000193e-01 -4.808080000000000132e-01 -1.182765000000000066e+00 -1.233206000000000024e+00 3.975830000000000197e-01 1.834605999999999959e+00 -1.786834000000000033e+00 2.184422999999999782e+00 6.653769999999999962e-01 -1.106919999999999904e+00 -3.103099999999999956e-02 4.017200000000000215e-01 7.899519999999999875e-01 1.191702999999999957e+00 -1.086662000000000017e+00 8.247740000000000071e-01 -5.371770000000000156e-01 -7.119000000000000328e-03 -3.873559999999999781e-01
-5.398499999999999827e-02 -5.285649999999999515e-01 -9.451589999999999714e-01 -3.582710000000000061e-01 4.183080000000000132e-01 -6.033500000000000529e-01 3.739600000000000146e-01 -2.112330000000000041e-01 -3.523229999999999973e-01 3.928119999999999945e-01 -1.795962999999999976e+00 2.913189999999999946e-01 -3.008999999999999956e-03 6.170459999999999834e-01 -1.102281000000000066e+00 3.269670000000000076e-01 1.445889999999999953e-01 8.799200000000000355e-01 1.814520000000000022e-01 -4.020699999999999830e-01 8.158590000000000009e-01 9.989879999999999871e-01 -2.885480000000000267e-01 5.389500000000000401e-01 6.942600000000000160e-02 6.084599999999999731e-02 -1.481980000000000075e+00 6.179409999999999625e-01 8.045499999999999874e-01 1.982272999999999952e+00 -1.298779999999999935e-01 -2.326320000000000054e-01 3.666300000000000114e-01 -1.499276000000000053e+00 -1.048681999999999892e+00 -8.558670000000000444e-01 4.433279999999999998e-01 4.307909999999999795e-01 -4.568900000000000045e-02 1.745279999999999887e-01 -4.949879999999999836e-01 7.046729999999999938e-01 1.172647999999999913e+00 2.416700000000000098e-02 -5.863180000000000058e-01 3.001639999999999864e-01 -2.850280000000000036e-01 -1.019891000000000103e+00 -2.450283999999999907e+00 -1.262578999999999896e+00 -1.116295000000000037e+00 -1.443945999999999952e+00 9.928460000000000063e-01 -2.245430999999999955e+00 3.900739999999999763e-01 1.098319999999999963e+00 2.440680000000000072e-01 7.235960000000000170e-01 -4.138850000000000029e-01 -5.329899999999999916e-02 1.625302000000000024e+00 1.317541999999999991e+00 -1.365834999999999910e+00 -1.697720000000000062e-01 2.494655999999999985e+00 -8.226999999999999591e-02 4.789519999999999889e-01 -5.466520000000000268e-01 1.103409000000000084e+00 -1.123483999999999927e+00 8.380969999999999809e-01 1.139542999999999973e+00 -1.051911999999999958e+00 1.150979999999999892e+00 1.453699999999999957e-02 9.698980000000000379e-01 4.185940000000000216e-01 -9.088960000000000372e-01 -2.075289999999999913e-01 -1.471500000000000030e+00 1.383613999999999900e+00 1.956858999999999904e+00 1.276478999999999919e+00 2.118430000000000035e-01 6.106979999999999631e-01 2.390009999999999912e-01 -5.555430000000000090e-01 -7.695880000000000498e-01 4.445049999999999835e-01 3.801309999999999967e-01 -1.017339999999999911e+00 -3.432810000000000028e-01 3.984770000000000256e-01 3.572520000000000140e-01 -1.937600000000000086e-02 -2.098319999999999907e-01 -2.096661000000000108e+00 -8.525390000000000468e-01 5.334769999999999790e-01 1.665775999999999923e+00 -1.002253999999999978e+00 1.688391999999999893e+00 -4.980339999999999767e-01 1.524464000000000041e+00 -1.257312999999999903e+00 -9.222369999999999735e-01 1.918476000000000070e+00 8.558390000000000164e-01 -1.614170000000000105e+00 7.480179999999999607e-01 8.491030000000000522e-01 -6.983549999999999480e-01 -2.206519999999999870e-01 8.687700000000000422e-01 -9.813460000000000516e-01 3.574200000000000293e-02 -7.058539999999999814e-01 6.355009999999999826e-01 -7.341000000000000303e-02 1.353788999999999909e+00 4.136259999999999937e-01 1.582362999999999964e+00 -9.586500000000000021e-01 4.036230000000000095e-01 -6.094600000000000017e-02 1.710629999999999928e-01 1.362570000000000059e+00 -2.080977999999999994e+00 1.144581999999999988e+00 -4.087640000000000162e-01 -3.114029999999999854e-01 8.084199999999999720e-02 -3.405880000000000019e-01 1.157629000000000019e+00 -5.338810000000000500e-01 -3.185950000000000171e-01 -2.971570000000000045e-01 1.062308000000000030e+00 -6.286300000000000221e-02 3.682270000000000265e-01 3.068940000000000001e-01 5.787470000000000114e-01 -9.509769999999999612e-01 -1.195837999999999957e+00 -5.837300000000000127e-02 -1.665437999999999974e+00 -8.332699999999999829e-02 1.035309999999999953e+00 7.294859999999999678e-01 3.291089999999999849e-01 1.754923999999999928e+00 -1.287120999999999960e+00 4.506799999999999695e-02 9.835920000000000218e-01 -1.356376000000000026e+00 9.082299999999999818e-01 -5.686529999999999641e-01 9.938970000000000304e-01 -9.386229999999999851e-01 -5.186600000000000099e-01 -1.333601999999999954e+00 -1.574715000000000087e+00 -1.632938999999999918e+00 -9.917859999999999454e-01 1.257469999999999977e-01