6.455962536999999557e+00 0.000000000000000000e+00 0.000000000000000000e+00 1.778633448999999978e+00 8.468512283000000807e+00 0.000000000000000000e+00 2.367433999999999858e-02 -1.763521499999999922e-02 8.283468294000000398e+00
6.542600267000000080e+00 0.000000000000000000e+00 0.000000000000000000e+00 1.657534448999999910e+00 8.447739534000000106e+00 0.000000000000000000e+00 5.923552800000000257e-02 2.371940499999999896e-02 8.475190101999999115e+00
6.609408593000000387e+00 0.000000000000000000e+00 0.000000000000000000e+00 -5.013526600999999694e+00 8.741390578000000744e+00 0.000000000000000000e+00 1.504887629999999976e-01 -2.116870399999999930e-01 8.397934911000000113e+00
6.507128005000000215e+00 0.000000000000000000e+00 0.000000000000000000e+00 1.721614256999999926e+00 8.425589064000000405e+00 0.000000000000000000e+00 -3.740773199999999910e-02 6.607491000000000059e-02 8.353111466999999735e+00
6.487229547000000096e+00 0.000000000000000000e+00 0.000000000000000000e+00 1.651499134000000035e+00 8.306418612999999951e+00 0.000000000000000000e+00 -2.262974999999999969e-03 2.788443079999999852e-01 8.509963763000000014e+00
6.482780778999999605e+00 0.000000000000000000e+00 0.000000000000000000e+00 1.620075788000000072e+00 8.320188824000000594e+00 0.000000000000000000e+00 -1.650859030000000061e-01 2.312278989999999868e-01 8.387216948000000727e+00
6.501266707000000089e+00 0.000000000000000000e+00 0.000000000000000000e+00 1.619642355999999950e+00 8.538615224999999143e+00 0.000000000000000000e+00 1.819495600000000171e-02 5.024474500000000038e-02 8.359240951000000308e+00
6.480421374999999706e+00 0.000000000000000000e+00 0.000000000000000000e+00 1.574554664999999964e+00 8.442012570999999355e+00 0.000000000000000000e+00 3.178761399999999876e-02 -6.838962899999999345e-02 8.384560995999999378e+00
6.550128070999999608e+00 0.000000000000000000e+00 0.000000000000000000e+00 1.695886403999999903e+00 8.394348310999999896e+00 0.000000000000000000e+00 -2.439827099999999915e-02 6.149121600000000132e-02 8.236733070999999740e+00
6.297154927000000235e+00 0.000000000000000000e+00 0.000000000000000000e+00 1.570158943999999890e+00 8.265420177999999396e+00 0.000000000000000000e+00 1.156625299999999995e-01 -1.587699409999999978e-01 9.594353219000000266e+00
6.496253779999999978e+00 0.000000000000000000e+00 0.000000000000000000e+00 1.492338635999999941e+00 8.519735772000000651e+00 0.000000000000000000e+00 -1.038268099999999951e-02 5.856252900000000206e-02 8.447373988000000722e+00
6.609408593000000387e+00 0.000000000000000000e+00 0.000000000000000000e+00 -5.013526600999999694e+00 8.741390578000000744e+00 0.000000000000000000e+00 1.504887629999999976e-01 -2.116870399999999930e-01 8.397934911000000113e+00
6.394322580999999950e+00 0.000000000000000000e+00 0.000000000000000000e+00 1.632248103000000006e+00 8.334695570999999248e+00 0.000000000000000000e+00 9.467059699999999522e-02 -1.315971099999999894e-01 9.447718769999999822e+00
6.421246234999999913e+00 0.000000000000000000e+00 0.000000000000000000e+00 1.736763842000000002e+00 8.324400167000000295e+00 0.000000000000000000e+00 -1.247756799999999965e-02 8.452790799999999882e-02 8.425744325000000146e+00
6.179604509999999884e+00 0.000000000000000000e+00 0.000000000000000000e+00 1.421303801999999950e+00 8.065764106999999683e+00 0.000000000000000000e+00 -2.227360800000000030e-02 1.152374349999999992e-01 1.054621035999999989e+01
6.434893534999999609e+00 0.000000000000000000e+00 0.000000000000000000e+00 1.465727376000000026e+00 8.445552381000000608e+00 0.000000000000000000e+00 8.036559000000000411e-03 -8.674948700000000013e-02 9.159481033000000494e+00
6.417971664000000409e+00 0.000000000000000000e+00 0.000000000000000000e+00 1.574647978000000004e+00 8.423167148999999299e+00 0.000000000000000000e+00 -3.248361400000000093e-02 -9.282885999999999915e-02 8.366741206000000375e+00
6.487551574000000265e+00 0.000000000000000000e+00 0.000000000000000000e+00 1.748852912000000037e+00 8.564458399999999472e+00 0.000000000000000000e+00 1.021850900000000062e-02 2.009333699999999931e-02 8.415195482999999754e+00
6.588552314000000187e+00 0.000000000000000000e+00 0.000000000000000000e+00 -4.988836424999999686e+00 8.706059122999999289e+00 0.000000000000000000e+00 1.378022530000000134e-01 -1.924917319999999987e-01 8.388087096999999659e+00
6.286291885999999884e+00 0.000000000000000000e+00 0.000000000000000000e+00 1.827132670999999986e+00 8.406972288000000404e+00 0.000000000000000000e+00 -4.322957399999999978e-02 6.708694299999999611e-02 8.366162962000000647e+00
6.400483071000000024e+00 0.000000000000000000e+00 0.000000000000000000e+00 1.801806441999999953e+00 8.524812474999999168e+00 0.000000000000000000e+00 -2.272121200000000105e-02 2.643752099999999855e-02 8.227288029000000336e+00
6.494637963999999819e+00 0.000000000000000000e+00 0.000000000000000000e+00 1.851362114000000059e+00 8.512902542999999156e+00 0.000000000000000000e+00 -6.295970600000000417e-02 2.047518749999999998e-01 8.868992333999999644e+00
6.366797144999999603e+00 0.000000000000000000e+00 0.000000000000000000e+00 1.514606531000000089e+00 8.418681058000000661e+00 0.000000000000000000e+00 1.444408799999999937e-01 -2.387320270000000133e-01 8.829468629000000846e+00
6.415165808000000247e+00 0.000000000000000000e+00 0.000000000000000000e+00 1.825702284999999980e+00 8.449553080999999466e+00 0.000000000000000000e+00 1.225206709999999977e-01 -1.194062729999999933e-01 8.602294492000000403e+00
6.434222731000000195e+00 0.000000000000000000e+00 0.000000000000000000e+00 1.737583462999999995e+00 8.346892157999999284e+00 0.000000000000000000e+00 3.808939399999999864e-02 -3.353364100000000292e-02 8.451257736000000520e+00
6.587501944000000442e+00 0.000000000000000000e+00 0.000000000000000000e+00 1.723554373000000028e+00 8.454861742000000291e+00 0.000000000000000000e+00 -4.556549000000000016e-02 -5.799986099999999978e-02 8.498203279000000165e+00
6.504432239999999865e+00 0.000000000000000000e+00 0.000000000000000000e+00 1.678256132000000012e+00 8.287489283999999401e+00 0.000000000000000000e+00 -2.852123499999999895e-02 6.492707000000000339e-02 8.142048499999999578e+00
6.740366497000000123e+00 0.000000000000000000e+00 0.000000000000000000e+00 -4.993602239000000331e+00 8.548998552000000473e+00 0.000000000000000000e+00 -7.558518899999999707e-02 1.785926670000000105e-01 8.171445431000000426e+00
6.438317288000000360e+00 0.000000000000000000e+00 0.000000000000000000e+00 1.809184609999999971e+00 8.343660347000000144e+00 0.000000000000000000e+00 -9.520005099999999387e-02 7.799465199999999765e-02 8.496342730000000287e+00
6.418414551999999773e+00 0.000000000000000000e+00 0.000000000000000000e+00 1.720484311999999960e+00 8.501773045000000195e+00 0.000000000000000000e+00 -3.017918099999999937e-02 5.626701900000000145e-02 8.273021392000000418e+00
6.373948786999999783e+00 0.000000000000000000e+00 0.000000000000000000e+00 1.767186479000000032e+00 8.438548375999999962e+00 0.000000000000000000e+00 -1.955432899999999877e-02 1.789711000000000036e-03 8.292749313999999927e+00
6.497875743999999898e+00 0.000000000000000000e+00 0.000000000000000000e+00 1.940642996000000009e+00 8.641317495999999210e+00 0.000000000000000000e+00 -9.272504299999999311e-02 8.749855500000000563e-02 8.349868998999999903e+00
6.537339300000000186e+00 0.000000000000000000e+00 0.000000000000000000e+00 1.736787402999999896e+00 8.472844758999999115e+00 0.000000000000000000e+00 2.424852999999999818e-03 1.478904359999999862e-01 8.870211600999999391e+00
6.469564848000000090e+00 0.000000000000000000e+00 0.000000000000000000e+00 1.777350470000000016e+00 8.578846027999999180e+00 0.000000000000000000e+00 -4.526900000000000368e-03 3.668966000000000068e-03 8.303335819000000839e+00
6.506320600999999648e+00 0.000000000000000000e+00 0.000000000000000000e+00 1.660754400000000075e+00 8.417440176999999579e+00 0.000000000000000000e+00 3.355712699999999910e-02 -6.278673899999999419e-02 8.371596338999999887e+00
6.670968657000000412e+00 0.000000000000000000e+00 0.000000000000000000e+00 -4.941093797999999815e+00 8.497978850000000861e+00 0.000000000000000000e+00 -6.065253500000000048e-02 1.457689739999999956e-01 8.172851529000000781e+00
6.479254392999999723e+00 0.000000000000000000e+00 0.000000000000000000e+00 1.613962287999999967e+00 8.418333302000000629e+00 0.000000000000000000e+00 2.929379500000000094e-02 -6.864325400000000077e-02 8.359323853999999443e+00
6.372874385000000252e+00 0.000000000000000000e+00 0.000000000000000000e+00 1.859624919999999904e+00 8.489686018000000445e+00 0.000000000000000000e+00 1.871037000000000091e-03 -8.970396999999999746e-03 8.191783815000000857e+00
6.490552248000000191e+00 0.000000000000000000e+00 0.000000000000000000e+00 1.802684328000000002e+00 8.538606140000000622e+00 0.000000000000000000e+00 1.519906000000000035e-02 -3.232689999999999978e-04 8.286510308000000435e+00
6.340166940999999667e+00 0.000000000000000000e+00 0.000000000000000000e+00 1.613985296000000069e+00 8.348346304999999745e+00 0.000000000000000000e+00 9.618718299999999555e-02 -3.507951900000000345e-02 9.740895911999999157e+00
6.435844601000000331e+00 0.000000000000000000e+00 0.000000000000000000e+00 1.723486080999999892e+00 8.492910869999999335e+00 0.000000000000000000e+00 -3.684825900000000126e-02 7.885475200000000018e-02 8.284130674000000027e+00
6.378412116999999881e+00 0.000000000000000000e+00 0.000000000000000000e+00 1.709584503999999949e+00 8.324592098000000107e+00 0.000000000000000000e+00 1.333417759999999952e-01 -1.915561719999999968e-01 8.447833155999999732e+00
6.608105699000000222e+00 0.000000000000000000e+00 0.000000000000000000e+00 -4.818618987999999881e+00 8.640176370000000716e+00 0.000000000000000000e+00 -1.171815300000000060e-01 1.077447470000000018e-01 8.192349934999999306e+00
6.505184021999999899e+00 0.000000000000000000e+00 0.000000000000000000e+00 1.630419239999999936e+00 8.394741803000000502e+00 0.000000000000000000e+00 4.239950800000000242e-02 -5.782531300000000318e-02 8.371441374999999852e+00
6.463467955999999681e+00 0.000000000000000000e+00 0.000000000000000000e+00 1.841450165999999999e+00 8.496143480000000636e+00 0.000000000000000000e+00 1.305872500000000019e-02 3.611150000000000145e-04 8.270736965999999413e+00
6.353173951999999680e+00 0.000000000000000000e+00 0.000000000000000000e+00 1.593963690999999905e+00 8.471743166999999630e+00 0.000000000000000000e+00 1.179513229999999968e-01 -1.553808130000000065e-01 9.628188899999999606e+00
6.470197426999999557e+00 0.000000000000000000e+00 0.000000000000000000e+00 1.372218128999999953e+00 8.319249747000000639e+00 0.000000000000000000e+00 -3.218821799999999761e-02 -1.062615340000000047e-01 8.467964317999999935e+00
6.473352268000000187e+00 0.000000000000000000e+00 0.000000000000000000e+00 1.674276231999999975e+00 8.452162175999999860e+00 0.000000000000000000e+00 5.335922700000000213e-02 -8.700677800000000683e-02 8.401121789999999478e+00
6.467368132999999908e+00 0.000000000000000000e+00 0.000000000000000000e+00 1.693124282000000091e+00 8.464597816999999580e+00 0.000000000000000000e+00 2.397002000000000160e-02 -7.718443899999999358e-02 8.363577989999999573e+00
6.477607668000000096e+00 0.000000000000000000e+00 0.000000000000000000e+00 1.461716864000000005e+00 8.458634274999999647e+00 0.000000000000000000e+00 -1.161527700000000024e-02 -1.199175199999999962e-02 8.397145797000000300e+00
