1.686460000000000070e+00 9.519600000000000284e-01 3.133939999999999948e+00 1.671570000000000000e+00 9.122200000000000308e-01 7.264380000000000059e+00 6.586669999999999803e+00 3.539649999999999963e+00 3.128620000000000179e+00 6.528229999999999755e+00 3.700829999999999842e+00 7.221680000000000099e+00 4.991839999999999833e+00 6.842530000000000001e+00 3.116550000000000153e+00 5.048449999999999882e+00 6.567040000000000433e+00 7.254690000000000083e+00 4.890010000000000190e+00 9.497100000000000541e-01 3.108540000000000081e+00 4.883930000000000327e+00 9.087699999999999667e-01 7.254520000000000302e+00 3.302849999999999842e+00 3.738379999999999814e+00 3.115510000000000002e+00 3.318439999999999834e+00 3.726579999999999782e+00 7.241979999999999862e+00 1.918279999999999985e+00 6.565089999999999648e+00 3.116049999999999986e+00 1.787849999999999939e+00 6.543870000000000076e+00 7.226189999999999891e+00 6.526489999999999903e+00 1.837960000000000038e+00 9.982900000000000107e-01 6.498450000000000060e+00 1.811420000000000030e+00 5.250169999999999781e+00 4.894899999999999807e+00 4.679260000000000197e+00 1.038540000000000019e+00 4.923199999999999577e+00 4.707429999999999559e+00 5.151119999999999699e+00 3.381600000000000161e+00 7.537490000000000023e+00 9.886899999999999578e-01 3.403439999999999799e+00 7.524899999999999700e+00 5.201740000000000030e+00 3.271590000000000220e+00 1.892419999999999991e+00 1.004040000000000044e+00 3.263879999999999892e+00 1.874500000000000055e+00 5.175500000000000433e+00 1.669010000000000105e+00 4.715270000000000294e+00 1.027060000000000084e+00 1.675980000000000025e+00 4.697540000000000049e+00 5.176099999999999923e+00 6.612409999999999677e+00 7.552719999999999878e+00 9.984899999999999887e-01 6.647230000000000416e+00 7.567359999999999864e+00 5.192980000000000373e+00 5.995400000000000063e+00 5.909250000000000114e+00 3.096859999999999946e+00 1.674060000000000104e+00 9.073700000000000099e-01 1.006599999999999939e+00 1.664860000000000007e+00 9.243200000000000305e-01 5.209069999999999645e+00 6.519479999999999720e+00 3.739209999999999923e+00 1.040980000000000016e+00 6.528299999999999770e+00 3.703619999999999912e+00 5.154869999999999841e+00 4.992189999999999905e+00 6.584139999999999660e+00 9.650699999999999834e-01 5.031609999999999694e+00 6.587900000000000311e+00 5.243409999999999904e+00 4.871579999999999799e+00 9.315200000000000147e-01 1.013460000000000027e+00 4.868640000000000079e+00 9.384400000000000519e-01 5.226449999999999818e+00 3.287720000000000198e+00 3.759459999999999802e+00 1.061120000000000063e+00 3.299679999999999946e+00 3.768079999999999874e+00 5.194890000000000008e+00 1.779290000000000038e+00 6.610170000000000101e+00 1.030070000000000041e+00 1.800499999999999989e+00 6.570630000000000415e+00 5.196180000000000021e+00 6.500519999999999854e+00 1.798950000000000049e+00 3.098809999999999842e+00 6.510139999999999816e+00 1.831990000000000007e+00 7.254439999999999777e+00 4.959539999999999615e+00 4.482590000000000074e+00 3.117980000000000196e+00 4.946600000000000108e+00 4.672250000000000014e+00 7.230019999999999669e+00 3.380030000000000090e+00 7.577890000000000015e+00 3.139310000000000045e+00 3.428669999999999884e+00 7.494699999999999918e+00 7.221919999999999895e+00 3.250000000000000000e+00 1.883499999999999952e+00 3.130970000000000031e+00 3.257490000000000219e+00 1.877340000000000009e+00 7.272879999999999789e+00 1.638879999999999892e+00 4.717859999999999943e+00 3.102889999999999926e+00 1.699689999999999923e+00 4.682909999999999684e+00 7.255749999999999922e+00 6.743669999999999831e+00 7.573459999999999859e+00 3.138320000000000221e+00 6.639940000000000175e+00 7.503169999999999895e+00 7.234309999999999796e+00
1.579790000000000028e+00 1.036990000000000078e+00 3.423490000000000144e+00 1.783300000000000107e+00 1.111259999999999915e+00 7.471860000000000390e+00 6.427489999999999704e+00 3.671809999999999796e+00 3.269480000000000164e+00 6.447980000000000267e+00 3.781899999999999817e+00 7.377189999999999692e+00 4.931280000000000108e+00 7.142800000000000260e+00 3.571369999999999933e+00 5.144709999999999894e+00 6.636560000000000237e+00 7.388609999999999900e+00 4.925220000000000375e+00 9.155600000000000405e-01 3.240029999999999966e+00 5.050790000000000113e+00 9.953699999999999770e-01 7.549360000000000070e+00 3.235160000000000036e+00 3.677970000000000184e+00 3.222420000000000062e+00 3.371410000000000018e+00 3.821610000000000174e+00 7.419679999999999609e+00 1.811460000000000070e+00 6.582639999999999603e+00 3.259189999999999809e+00 1.796229999999999993e+00 6.664109999999999978e+00 7.625429999999999708e+00 6.593490000000000073e+00 1.960180000000000033e+00 1.054519999999999902e+00 6.523640000000000327e+00 1.886319999999999997e+00 5.479549999999999699e+00 4.864289999999999559e+00 4.645209999999999617e+00 1.040750000000000064e+00 4.878949999999999676e+00 4.713079999999999714e+00 5.268189999999999706e+00 3.496630000000000127e+00 7.439659999999999940e+00 1.190350000000000019e+00 3.373470000000000191e+00 7.439169999999999838e+00 5.483170000000000321e+00 3.221309999999999896e+00 1.930420000000000025e+00 1.303860000000000019e+00 3.442559999999999842e+00 1.873240000000000016e+00 5.374489999999999768e+00 1.626160000000000050e+00 4.668590000000000018e+00 1.120200000000000085e+00 1.549989999999999979e+00 4.564219999999999722e+00 5.320730000000000182e+00 6.672670000000000101e+00 7.599000000000000199e+00 1.015290000000000026e+00 6.711759999999999948e+00 7.577329999999999899e+00 5.368789999999999729e+00 5.552909999999999791e+00 6.068430000000000213e+00 3.026860000000000106e+00 1.737489999999999979e+00 8.505899999999999572e-01 9.735500000000000265e-01 1.665910000000000002e+00 9.228600000000000136e-01 5.334819999999999673e+00 6.468679999999999986e+00 3.816520000000000135e+00 9.667900000000000382e-01 6.420270000000000366e+00 3.714570000000000149e+00 5.284010000000000318e+00 5.079159999999999897e+00 6.527800000000000047e+00 8.529499999999999860e-01 5.030890000000000306e+00 6.614300000000000068e+00 5.368839999999999613e+00 4.926000000000000156e+00 9.535599999999999632e-01 1.048829999999999929e+00 5.019709999999999894e+00 8.671100000000000474e-01 5.187520000000000131e+00 3.147839999999999971e+00 3.716349999999999820e+00 9.552100000000000035e-01 3.368450000000000166e+00 3.667580000000000062e+00 5.150109999999999744e+00 1.777849999999999930e+00 6.464769999999999683e+00 1.077900000000000080e+00 1.893140000000000045e+00 6.472190000000000332e+00 5.226079999999999615e+00 6.467050000000000409e+00 1.944290000000000074e+00 3.152759999999999785e+00 6.625070000000000014e+00 1.971749999999999892e+00 7.544679999999999609e+00 4.827890000000000015e+00 4.518239999999999590e+00 3.057609999999999939e+00 4.971630000000000216e+00 4.729639999999999844e+00 7.410779999999999923e+00 3.287970000000000059e+00 7.612239999999999895e+00 3.130630000000000024e+00 3.386179999999999968e+00 7.482190000000000119e+00 7.347450000000000259e+00 3.186739999999999906e+00 1.864030000000000076e+00 3.227160000000000029e+00 3.479280000000000150e+00 1.929310000000000080e+00 7.388110000000000177e+00 1.503640000000000088e+00 4.587460000000000093e+00 3.178300000000000125e+00 1.705920000000000103e+00 4.573719999999999786e+00 7.334050000000000402e+00 6.797930000000000028e+00 7.512240000000000251e+00 3.279990000000000183e+00 6.755880000000000329e+00 7.632670000000000066e+00 7.318100000000000271e+00
1.722520000000000051e+00 9.031500000000000083e-01 3.153810000000000002e+00 1.800459999999999949e+00 7.897899999999999920e-01 7.354269999999999641e+00 9.547999999999999543e-02 3.649649999999999839e+00 3.153169999999999806e+00 1.044299999999999951e-01 3.686479999999999979e+00 7.344649999999999679e+00 -1.842910000000000048e+00 6.794990000000000308e+00 3.133439999999999781e+00 -1.538210000000000077e+00 6.580259999999999998e+00 7.355979999999999741e+00 5.029029999999999667e+00 8.965800000000000436e-01 3.157210000000000072e+00 5.072359999999999758e+00 7.819500000000000339e-01 7.350130000000000052e+00 3.315640000000000143e+00 3.771199999999999886e+00 3.152680000000000149e+00 3.390080000000000204e+00 3.700369999999999937e+00 7.352149999999999963e+00 1.806759999999999922e+00 6.751070000000000348e+00 3.143660000000000121e+00 1.754289999999999905e+00 6.612800000000000011e+00 7.349660000000000082e+00 1.957000000000000059e-02 1.881059999999999954e+00 1.023660000000000014e+00 8.580000000000000127e-02 1.779009999999999980e+00 5.288070000000000270e+00 -1.677710000000000035e+00 4.794810000000000016e+00 1.064869999999999983e+00 -1.602430000000000021e+00 4.691169999999999618e+00 5.248129999999999740e+00 -3.310540000000000038e+00 7.761009999999999742e+00 1.009619999999999962e+00 -3.228810000000000180e+00 7.645800000000000374e+00 5.289930000000000021e+00 3.319170000000000176e+00 1.920609999999999928e+00 1.050470000000000015e+00 3.390620000000000189e+00 1.812130000000000019e+00 5.256890000000000285e+00 1.625529999999999919e+00 4.833529999999999660e+00 1.062580000000000080e+00 1.705170000000000075e+00 4.728080000000000283e+00 5.248230000000000395e+00 -2.353999999999999843e-02 7.756789999999999630e+00 1.055069999999999952e+00 5.636000000000000038e-02 7.645800000000000374e+00 5.251579999999999693e+00 -6.359700000000000353e-01 6.123140000000000249e+00 3.181610000000000049e+00 1.679210000000000091e+00 9.481000000000000538e-01 1.023169999999999913e+00 1.753160000000000052e+00 8.407599999999999518e-01 5.285099999999999909e+00 3.640000000000000006e-03 3.827599999999999891e+00 1.067250000000000032e+00 8.128000000000000502e-02 3.712060000000000137e+00 5.235400000000000276e+00 -1.671890000000000098e+00 6.757799999999999585e+00 1.002520000000000078e+00 -1.582950000000000079e+00 6.640699999999999825e+00 5.306429999999999758e+00 4.964450000000000252e+00 9.494599999999999707e-01 1.035700000000000065e+00 5.045980000000000132e+00 8.431499999999999551e-01 5.275999999999999801e+00 3.276860000000000106e+00 3.864129999999999843e+00 1.054920000000000080e+00 3.348529999999999784e+00 3.745519999999999960e+00 5.243870000000000253e+00 1.647690000000000099e+00 6.769689999999999763e+00 1.057809999999999917e+00 1.734620000000000051e+00 6.671789999999999665e+00 5.248940000000000161e+00 7.144000000000000350e-02 1.800440000000000040e+00 3.151790000000000092e+00 1.243699999999999944e-01 1.745389999999999997e+00 7.355410000000000004e+00 -1.593050000000000077e+00 4.568459999999999965e+00 3.151110000000000078e+00 -1.551150000000000029e+00 4.629430000000000156e+00 7.353530000000000122e+00 -3.308840000000000003e+00 7.781579999999999941e+00 3.150310000000000166e+00 -3.203580000000000094e+00 7.589319999999999844e+00 7.351630000000000109e+00 3.352149999999999963e+00 1.840540000000000065e+00 3.156169999999999920e+00 3.433980000000000032e+00 1.765519999999999978e+00 7.346110000000000362e+00 1.661030000000000006e+00 4.788009999999999877e+00 3.158840000000000092e+00 1.737579999999999902e+00 4.674509999999999721e+00 7.350509999999999877e+00 1.871099999999999985e-01 7.751439999999999664e+00 3.152810000000000112e+00 1.103800000000000059e-01 7.588059999999999583e+00 7.355669999999999931e+00
1.589399999999999924e+00 1.015390000000000015e+00 3.152989999999999959e+00 1.610389999999999988e+00 9.718900000000000317e-01 7.345839999999999925e+00 6.539570000000000327e+00 3.694360000000000088e+00 3.141739999999999977e+00 6.519849999999999923e+00 3.800800000000000178e+00 7.291430000000000078e+00 4.962010000000000254e+00 7.178799999999999848e+00 3.504599999999999937e+00 4.980749999999999567e+00 6.595819999999999794e+00 7.331610000000000404e+00 4.926409999999999734e+00 9.815800000000000081e-01 3.138560000000000016e+00 4.870029999999999859e+00 9.955399999999999805e-01 7.326620000000000132e+00 3.240240000000000009e+00 3.717579999999999885e+00 3.134079999999999977e+00 3.263910000000000089e+00 3.764740000000000197e+00 7.285079999999999778e+00 1.790599999999999969e+00 6.551599999999999646e+00 3.182780000000000165e+00 1.731549999999999923e+00 6.573500000000000121e+00 7.350719999999999921e+00 6.521139999999999937e+00 1.856239999999999890e+00 1.016270000000000007e+00 6.484630000000000116e+00 1.898579999999999934e+00 5.272990000000000066e+00 4.860619999999999941e+00 4.580779999999999852e+00 9.403299999999999992e-01 4.868780000000000108e+00 4.785580000000000389e+00 5.178499999999999659e+00 3.453469999999999818e+00 7.428980000000000139e+00 1.098459999999999992e+00 3.272060000000000191e+00 7.555270000000000152e+00 5.339170000000000194e+00 3.265540000000000109e+00 1.836279999999999912e+00 1.057490000000000041e+00 3.247269999999999879e+00 1.862479999999999913e+00 5.221359999999999779e+00 1.639599999999999946e+00 4.654749999999999943e+00 1.035819999999999963e+00 1.645690000000000097e+00 4.685410000000000075e+00 5.203680000000000305e+00 6.705869999999999997e+00 7.528889999999999638e+00 1.023530000000000051e+00 6.666870000000000296e+00 7.491909999999999847e+00 5.322610000000000063e+00 5.482459999999999667e+00 6.156570000000000320e+00 2.764930000000000110e+00 1.626470000000000082e+00 9.113400000000000389e-01 1.029460000000000042e+00 1.615059999999999940e+00 9.724800000000000111e-01 5.253009999999999735e+00 6.516140000000000043e+00 3.726280000000000037e+00 1.024529999999999941e+00 6.505829999999999558e+00 3.774570000000000203e+00 5.232140000000000235e+00 5.084430000000000227e+00 6.476569999999999716e+00 9.211200000000000498e-01 4.957069999999999865e+00 6.680229999999999890e+00 5.364790000000000170e+00 4.904810000000000336e+00 9.436700000000000088e-01 1.052450000000000108e+00 4.886099999999999888e+00 9.305200000000000138e-01 5.222220000000000084e+00 3.243290000000000006e+00 3.691809999999999814e+00 1.019330000000000069e+00 3.283959999999999990e+00 3.771250000000000213e+00 5.193170000000000286e+00 1.772920000000000051e+00 6.516799999999999926e+00 1.046890000000000098e+00 1.747020000000000017e+00 6.556049999999999933e+00 5.241909999999999847e+00 6.510720000000000063e+00 1.877150000000000096e+00 3.155250000000000110e+00 6.504410000000000025e+00 1.942569999999999908e+00 7.292440000000000033e+00 4.894569999999999865e+00 4.510889999999999844e+00 3.108550000000000146e+00 4.867700000000000138e+00 4.719640000000000057e+00 7.313880000000000159e+00 3.285070000000000157e+00 7.602360000000000007e+00 3.090250000000000163e+00 3.320699999999999985e+00 7.547799999999999621e+00 7.335379999999999789e+00 3.255360000000000031e+00 1.839669999999999916e+00 3.149640000000000217e+00 3.285480000000000178e+00 1.903370000000000006e+00 7.277800000000000047e+00 1.640630000000000033e+00 4.674299999999999677e+00 3.123590000000000089e+00 1.632689999999999975e+00 4.727649999999999686e+00 7.280380000000000074e+00 6.737890000000000157e+00 7.537359999999999616e+00 3.141169999999999796e+00 6.632089999999999819e+00 7.564400000000000013e+00 7.323179999999999801e+00
1.729970000000000008e+00 1.064710000000000045e+00 3.292120000000000157e+00 1.477700000000000014e+00 1.231859999999999955e+00 7.279160000000000075e+00 6.568509999999999849e+00 3.772060000000000191e+00 3.127870000000000150e+00 6.499539999999999651e+00 3.987169999999999881e+00 7.461689999999999934e+00 5.110899999999999999e+00 7.135519999999999641e+00 3.492269999999999985e+00 4.990850000000000009e+00 6.641770000000000174e+00 7.446710000000000385e+00 5.075520000000000032e+00 1.025849999999999929e+00 3.242309999999999803e+00 4.777929999999999566e+00 1.319329999999999892e+00 7.401550000000000296e+00 3.313250000000000028e+00 3.634100000000000108e+00 3.108629999999999782e+00 3.285719999999999974e+00 3.918190000000000062e+00 7.293440000000000367e+00 1.762019999999999920e+00 6.391350000000000087e+00 3.111920000000000019e+00 1.643620000000000081e+00 6.683250000000000135e+00 7.471390000000000420e+00 6.523509999999999920e+00 1.835760000000000058e+00 1.083229999999999915e+00 6.435500000000000220e+00 2.028680000000000039e+00 5.188629999999999853e+00 4.892859999999999765e+00 4.405649999999999622e+00 1.014080000000000092e+00 4.876549999999999940e+00 4.815339999999999954e+00 5.346239999999999881e+00 3.179190000000000182e+00 7.458849999999999980e+00 1.000129999999999963e+00 3.272190000000000154e+00 7.611790000000000056e+00 5.472419999999999618e+00 3.323539999999999939e+00 1.649299999999999988e+00 8.666500000000000314e-01 3.314309999999999867e+00 2.036280000000000090e+00 5.320540000000000269e+00 1.691740000000000022e+00 4.560940000000000438e+00 1.073819999999999997e+00 1.657410000000000050e+00 4.750939999999999941e+00 5.242899999999999672e+00 6.600970000000000226e+00 7.425679999999999836e+00 9.035400000000000098e-01 6.491189999999999571e+00 7.481150000000000411e+00 5.441519999999999690e+00 4.683830000000000382e+00 6.154849999999999710e+00 2.732450000000000045e+00 1.575430000000000108e+00 9.313000000000000167e-01 6.879100000000000215e-01 1.542569999999999997e+00 1.208939999999999904e+00 5.358120000000000438e+00 6.561040000000000205e+00 3.725880000000000081e+00 8.832799999999999541e-01 6.500169999999999781e+00 3.956710000000000171e+00 5.388090000000000046e+00 4.937079999999999913e+00 6.447330000000000005e+00 9.633399999999999741e-01 4.895279999999999632e+00 6.716429999999999900e+00 5.501879999999999882e+00 4.884529999999999816e+00 9.915800000000000169e-01 1.217540000000000067e+00 4.820000000000000284e+00 1.158949999999999925e+00 5.359530000000000349e+00 3.245649999999999924e+00 3.532810000000000006e+00 1.189999999999999947e+00 3.237810000000000077e+00 3.860339999999999883e+00 5.165169999999999817e+00 1.658409999999999940e+00 6.507920000000000371e+00 1.217670000000000030e+00 1.771409999999999929e+00 6.522599999999999731e+00 5.546680000000000277e+00 6.658419999999999561e+00 2.009430000000000049e+00 3.235020000000000007e+00 6.284570000000000434e+00 2.079849999999999977e+00 7.477590000000000181e+00 4.957659999999999734e+00 4.498709999999999987e+00 3.164919999999999956e+00 4.684680000000000177e+00 4.861989999999999590e+00 7.499259999999999593e+00 3.313600000000000101e+00 7.457370000000000054e+00 3.114479999999999915e+00 3.375169999999999781e+00 7.536559999999999704e+00 7.433810000000000251e+00 3.339760000000000062e+00 1.783490000000000020e+00 3.241309999999999913e+00 3.274719999999999853e+00 2.095670000000000144e+00 7.398039999999999949e+00 1.687070000000000070e+00 4.646910000000000096e+00 3.062069999999999848e+00 1.682260000000000089e+00 4.801149999999999807e+00 7.569589999999999819e+00 6.807080000000000020e+00 7.599339999999999762e+00 3.559909999999999908e+00 6.490050000000000097e+00 7.734099999999999753e+00 7.458079999999999821e+00
1.560570000000000013e+00 9.695099999999999829e-01 3.287040000000000184e+00 1.566899999999999959e+00 1.251829999999999998e+00 7.455479999999999663e+00 6.655400000000000205e+00 3.720169999999999977e+00 3.045630000000000059e+00 6.347920000000000229e+00 3.760450000000000070e+00 7.404139999999999944e+00 4.766009999999999636e+00 7.045440000000000147e+00 3.442079999999999806e+00 4.761260000000000048e+00 6.578669999999999796e+00 7.255080000000000418e+00 4.906889999999999752e+00 1.100840000000000041e+00 3.139019999999999921e+00 4.687940000000000218e+00 1.064279999999999893e+00 7.215239999999999654e+00 3.146939999999999849e+00 3.864570000000000061e+00 3.119359999999999911e+00 3.043499999999999872e+00 4.006920000000000037e+00 7.317140000000000200e+00 1.509439999999999893e+00 6.601370000000000182e+00 3.333390000000000075e+00 1.389420000000000099e+00 6.760500000000000398e+00 7.293720000000000425e+00 6.439790000000000347e+00 1.891280000000000072e+00 9.760199999999999987e-01 6.375560000000000116e+00 2.042400000000000215e+00 5.377060000000000173e+00 4.916710000000000136e+00 4.549970000000000070e+00 9.927000000000000268e-01 4.805119999999999614e+00 4.754660000000000331e+00 5.228850000000000442e+00 3.262579999999999814e+00 7.435240000000000293e+00 1.079509999999999970e+00 3.050440000000000040e+00 7.527449999999999974e+00 5.435489999999999711e+00 3.181449999999999889e+00 1.841409999999999991e+00 9.820400000000000240e-01 3.259129999999999860e+00 1.885610000000000008e+00 5.173339999999999606e+00 1.536939999999999973e+00 4.828190000000000204e+00 9.557499999999999885e-01 1.490110000000000046e+00 4.656049999999999578e+00 5.317219999999999835e+00 6.420569999999999666e+00 7.496100000000000207e+00 9.734399999999999720e-01 6.308010000000000339e+00 7.504030000000000200e+00 5.407809999999999562e+00 5.493870000000000253e+00 6.012710000000000221e+00 2.842239999999999878e+00 1.565029999999999921e+00 9.200399999999999689e-01 1.164409999999999945e+00 1.544589999999999907e+00 1.051250000000000018e+00 5.202510000000000190e+00 6.610909999999999620e+00 3.688289999999999846e+00 8.237400000000000277e-01 6.475559999999999761e+00 3.837990000000000013e+00 5.329939999999999678e+00 4.809840000000000337e+00 6.434789999999999566e+00 9.307499999999999662e-01 4.653450000000000308e+00 6.573199999999999932e+00 5.317020000000000302e+00 4.846610000000000085e+00 9.515299999999999869e-01 9.739799999999999569e-01 4.817650000000000432e+00 9.368800000000000461e-01 5.274549999999999628e+00 3.228110000000000035e+00 3.699640000000000040e+00 8.913499999999999757e-01 3.136559999999999793e+00 3.879809999999999981e+00 5.068469999999999587e+00 1.604400000000000048e+00 6.605229999999999713e+00 9.090099999999999847e-01 1.352340000000000098e+00 6.544170000000000265e+00 5.299900000000000055e+00 6.438600000000000101e+00 1.916789999999999994e+00 3.234490000000000087e+00 6.400400000000000311e+00 1.931159999999999988e+00 7.322580000000000311e+00 5.011999999999999567e+00 4.350880000000000081e+00 3.125459999999999905e+00 4.845839999999999925e+00 4.679490000000000371e+00 7.370040000000000369e+00 2.955769999999999786e+00 7.625499999999999723e+00 3.385170000000000012e+00 3.221200000000000063e+00 7.528220000000000134e+00 7.479490000000000194e+00 3.134570000000000078e+00 1.893809999999999993e+00 3.102250000000000174e+00 3.152699999999999836e+00 2.107969999999999899e+00 7.250910000000000188e+00 1.557139999999999969e+00 4.862940000000000040e+00 3.073710000000000164e+00 1.511679999999999913e+00 4.869369999999999976e+00 7.358450000000000379e+00 6.532140000000000057e+00 7.556210000000000093e+00 3.299220000000000041e+00 6.318929999999999936e+00 7.572680000000000078e+00 7.448780000000000179e+00
1.534110000000000085e+00 1.003500000000000059e+00 3.151330000000000187e+00 1.600680000000000103e+00 1.030149999999999899e+00 7.258810000000000429e+00 6.536629999999999718e+00 3.748549999999999827e+00 3.102450000000000152e+00 6.533680000000000376e+00 3.795960000000000001e+00 7.375510000000000232e+00 4.757329999999999615e+00 7.202790000000000248e+00 3.588610000000000078e+00 4.984449999999999825e+00 6.605050000000000310e+00 7.320560000000000400e+00 4.976810000000000400e+00 8.924400000000000110e-01 3.268520000000000092e+00 4.907910000000000217e+00 9.428400000000000114e-01 7.460289999999999644e+00 3.248069999999999791e+00 3.763259999999999827e+00 3.148870000000000058e+00 3.140930000000000000e+00 3.750939999999999941e+00 7.332449999999999690e+00 1.645450000000000079e+00 6.655439999999999579e+00 3.164620000000000211e+00 1.855180000000000051e+00 6.474569999999999936e+00 7.426980000000000359e+00 6.570100000000000051e+00 1.942539999999999933e+00 1.021519999999999984e+00 6.516359999999999708e+00 1.963819999999999899e+00 5.109939999999999927e+00 4.754879999999999995e+00 4.756170000000000009e+00 9.574000000000000288e-01 4.802529999999999966e+00 4.888650000000000162e+00 5.146840000000000082e+00 3.406559999999999810e+00 7.662589999999999790e+00 9.984499999999999487e-01 3.191650000000000098e+00 7.698970000000000091e+00 5.316559999999999953e+00 3.222939999999999916e+00 1.803800000000000070e+00 1.010699999999999932e+00 3.340310000000000112e+00 1.912090000000000067e+00 5.185629999999999740e+00 1.631699999999999928e+00 4.724310000000000009e+00 1.113450000000000051e+00 1.634649999999999936e+00 4.685270000000000046e+00 5.096420000000000172e+00 6.626520000000000188e+00 7.562949999999999839e+00 1.002939999999999943e+00 6.596219999999999750e+00 7.582209999999999894e+00 5.401349999999999874e+00 5.380370000000000097e+00 6.217159999999999798e+00 2.748940000000000161e+00 1.618999999999999995e+00 9.734500000000000375e-01 1.023050000000000015e+00 1.709850000000000092e+00 1.065819999999999990e+00 5.301580000000000403e+00 6.406950000000000145e+00 3.804930000000000145e+00 9.834100000000000064e-01 6.390049999999999564e+00 3.874519999999999964e+00 5.114440000000000097e+00 5.041680000000000383e+00 6.498350000000000293e+00 9.681800000000000406e-01 4.904370000000000118e+00 6.807699999999999640e+00 5.380530000000000257e+00 4.893670000000000186e+00 1.003370000000000095e+00 9.889900000000000357e-01 4.940979999999999706e+00 8.807099999999999929e-01 5.102750000000000341e+00 3.234649999999999803e+00 3.674840000000000106e+00 1.144940000000000069e+00 3.169840000000000213e+00 3.764670000000000183e+00 5.196500000000000341e+00 1.845450000000000035e+00 6.574239999999999640e+00 1.029889999999999972e+00 1.662840000000000096e+00 6.586999999999999744e+00 5.302260000000000417e+00 6.607579999999999565e+00 1.999000000000000110e+00 3.156400000000000095e+00 6.401519999999999655e+00 1.940949999999999953e+00 7.160440000000000360e+00 4.951939999999999564e+00 4.633750000000000036e+00 3.252359999999999918e+00 4.776119999999999699e+00 4.811219999999999608e+00 7.360970000000000013e+00 3.180759999999999810e+00 7.760209999999999830e+00 3.139130000000000198e+00 3.302270000000000039e+00 7.721599999999999575e+00 7.299299999999999677e+00 3.243759999999999977e+00 1.817129999999999912e+00 3.133160000000000167e+00 3.226850000000000218e+00 1.835090000000000110e+00 7.374670000000000059e+00 1.724199999999999955e+00 4.770900000000000141e+00 3.097850000000000215e+00 1.534289999999999932e+00 4.685590000000000366e+00 7.379509999999999792e+00 6.626769999999999605e+00 7.602719999999999700e+00 3.030110000000000081e+00 6.742350000000000065e+00 7.586310000000000109e+00 7.376479999999999926e+00
1.588780000000000081e+00 9.548100000000000476e-01 3.134129999999999860e+00 1.669929999999999914e+00 8.735300000000000287e-01 7.289380000000000415e+00 6.527910000000000323e+00 3.645239999999999814e+00 3.133090000000000153e+00 6.572409999999999641e+00 3.674690000000000012e+00 7.392789999999999750e+00 4.728589999999999627e+00 7.113470000000000404e+00 2.744850000000000012e+00 4.839520000000000266e+00 6.442849999999999966e+00 7.325870000000000104e+00 4.906320000000000014e+00 9.112200000000000299e-01 3.146129999999999871e+00 4.905339999999999812e+00 8.918800000000000061e-01 7.326529999999999987e+00 3.225449999999999928e+00 3.649859999999999882e+00 3.144960000000000200e+00 3.266770000000000174e+00 3.668070000000000164e+00 7.394210000000000171e+00 1.590829999999999966e+00 6.509190000000000254e+00 3.146599999999999842e+00 1.596090000000000009e+00 6.474199999999999733e+00 7.270870000000000388e+00 6.520570000000000199e+00 1.871960000000000068e+00 1.025700000000000056e+00 6.572659999999999947e+00 1.817800000000000082e+00 5.295259999999999856e+00 4.875090000000000146e+00 4.729219999999999757e+00 1.105550000000000033e+00 4.893060000000000187e+00 4.502229999999999954e+00 5.386949999999999683e+00 3.105970000000000120e+00 7.528050000000000352e+00 8.932700000000000085e-01 3.265270000000000117e+00 7.415009999999999657e+00 5.218679999999999986e+00 3.261499999999999844e+00 1.846479999999999899e+00 1.058789999999999898e+00 3.278230000000000199e+00 1.803800000000000070e+00 5.259479999999999933e+00 1.671499999999999986e+00 4.698900000000000077e+00 1.039989999999999970e+00 1.682790000000000008e+00 4.636459999999999582e+00 5.249290000000000234e+00 6.468679999999999986e+00 7.509310000000000151e+00 9.541100000000000136e-01 6.464819999999999567e+00 7.489200000000000301e+00 5.317280000000000229e+00 5.255740000000000300e+00 6.102630000000000443e+00 3.555860000000000021e+00 1.636949999999999905e+00 9.149000000000000465e-01 1.033509999999999929e+00 1.675710000000000033e+00 8.614199999999999635e-01 5.281299999999999883e+00 6.536349999999999660e+00 3.776069999999999816e+00 1.032489999999999908e+00 6.562719999999999665e+00 3.678230000000000111e+00 5.258510000000000240e+00 4.787180000000000213e+00 6.628529999999999589e+00 9.036699999999999733e-01 4.860109999999999708e+00 6.378370000000000317e+00 5.377880000000000216e+00 4.878169999999999895e+00 9.030299999999999994e-01 1.085120000000000084e+00 4.910269999999999690e+00 8.971000000000000085e-01 5.254480000000000040e+00 3.270379999999999843e+00 3.714519999999999822e+00 1.032030000000000003e+00 3.274830000000000130e+00 3.665830000000000144e+00 5.262900000000000134e+00 1.556890000000000107e+00 6.547189999999999621e+00 9.907399999999999540e-01 1.583460000000000090e+00 6.515069999999999695e+00 5.270570000000000199e+00 6.501599999999999824e+00 1.838090000000000002e+00 3.138659999999999783e+00 6.560310000000000308e+00 1.808820000000000094e+00 7.342360000000000220e+00 4.885799999999999699e+00 4.450840000000000352e+00 3.093230000000000146e+00 4.940929999999999822e+00 4.553350000000000009e+00 7.374550000000000161e+00 3.064770000000000216e+00 7.585169999999999746e+00 3.195250000000000146e+00 3.206739999999999924e+00 7.467719999999999914e+00 7.296960000000000335e+00 3.224860000000000060e+00 1.793420000000000014e+00 3.117080000000000073e+00 3.283479999999999954e+00 1.772529999999999939e+00 7.348309999999999675e+00 1.631480000000000041e+00 4.648279999999999745e+00 3.125329999999999941e+00 1.688579999999999970e+00 4.620930000000000426e+00 7.332900000000000418e+00 6.494309999999999583e+00 7.489740000000000286e+00 3.209400000000000031e+00 6.472389999999999866e+00 7.443559999999999732e+00 7.338289999999999758e+00