-6.375640000000000196e-01 -8.269499999999999629e-01 -3.084620000000000140e-01 3.080550000000000233e-01 -4.295709999999999806e-01 -3.201080000000000036e-01 1.228650000000000020e-01 1.396144000000000052e+00 -1.724819999999999964e-01 2.667160000000000086e-01 6.068519999999999470e-01 3.531460000000000155e-01 -6.824120000000000186e-01 6.364170000000000105e-01 -8.700199999999999600e-02 -4.271119999999999917e-01 -7.224359999999999671e-01 -3.072259999999999991e-01 -1.638789999999999969e-01 -1.974599999999999966e-02 -1.385770000000000057e-01 -4.208419999999999939e-01 8.787599999999999578e-02 -4.440999999999999635e-03 -6.127169999999999561e-01 7.780399999999999816e-02 -1.748810000000000087e-01 -3.383400000000000296e-02 7.111110000000000486e-01 -1.091530000000000000e-01 7.299999999999999545e-02 9.080270000000000286e-01 -1.391600000000000059e-01 3.502709999999999990e-01 2.290790000000000048e-01 1.635109999999999897e-01 -5.302000000000000046e-01 2.871360000000000023e-01 1.645850000000000091e-01 2.575600000000000112e-02 4.586669999999999914e-01 -4.405470000000000219e-01 2.102970000000000117e-01 6.155129999999999768e-01 9.252299999999999414e-02 -1.354360000000000008e-01 4.086599999999999955e-02 2.071060000000000123e-01 4.905990000000000073e-01 -3.926490000000000258e-01 1.331589999999999996e-01 4.916420000000000234e-01 -1.208329999999999960e-01 2.386830000000000063e-01 -1.980609999999999871e-01 -4.335499999999999771e-02 4.758560000000000012e-01 8.937799999999999911e-02 3.729640000000000177e-01 1.916269999999999918e-01 -4.845000000000000001e-02 1.549599999999999936e-02 1.778009999999999868e-01 2.648000000000000180e-03 -3.274500000000000327e-02 -8.069800000000000584e-02 6.466299999999999826e-02 -5.724810000000000176e-01 3.882740000000000080e-01 -1.611440000000000095e-01 -9.336780000000000079e-01 -1.320639999999999870e-01 -5.424309999999999965e-01 -1.297069999999999890e-01 -8.984200000000000519e-02 -3.479199999999999654e-02 6.224300000000000388e-01 7.067900000000000571e-02 -2.796299999999999827e-02 2.057410000000000072e-01 -1.274199999999999985e-02 3.160789999999999988e-01 -6.048540000000000028e-01 -7.197199999999999431e-02 4.776639999999999775e-01 -2.497840000000000060e-01 2.331259999999999999e-01 2.959069999999999756e-01 -3.618199999999999888e-02 1.657879999999999909e-01 1.226450000000000040e-01 1.361500000000000037e-02 -2.077720000000000122e-01 1.381090000000000095e-01 3.317939999999999778e-01 1.339500000000000066e-02 9.340800000000000491e-02 2.593799999999999994e-01 -8.478499999999999925e-02 -3.427890000000000104e-01 -1.253690000000000082e-01 -1.554850000000000121e-01 -3.299699999999999855e-01 -3.680019999999999958e-01 -1.363610000000000100e-01 -3.186309999999999976e-01 -5.422360000000000513e-01 2.491170000000000051e-01 -3.451890000000000236e-01 -2.660279999999999867e-01 -3.423680000000000057e-01 4.875030000000000197e-01 -9.764300000000000201e-01 -5.738800000000000151e-02 -1.096270000000000022e-01 5.925199999999999911e-02 3.295800000000000118e-02 1.671400000000000108e-01 -6.936489999999999601e-01 -5.066400000000000070e-02 -1.266589999999999938e-01 -3.280500000000000083e-01 1.593169999999999864e-01 1.374160000000000104e-01 2.386070000000000135e-01 -1.073390000000000039e-01 -6.724890000000000034e-01 5.115330000000000155e-01 2.608849999999999780e-01 6.698680000000000190e-01 -2.516140000000000043e-01 -5.084500000000000131e-02 5.592420000000000169e-01 -3.335609999999999964e-01 -1.471729999999999983e-01 6.287700000000000233e-02 -1.305570000000000064e-01 1.765329999999999955e-01 -2.554480000000000084e-01 -3.199449999999999794e-01 -1.152419999999999972e-01 4.938690000000000024e-01 8.827500000000000624e-02 -1.418619999999999881e-01 6.400240000000000373e-01 6.758359999999999923e-01 2.385720000000000063e-01
-8.908209999999999740e-01 -1.217734000000000094e+00 -1.047792999999999974e+00 3.774000000000000011e-03 -1.955689999999999928e+00 3.771180000000000088e-01 1.008601999999999999e+00 1.086969999999999992e+00 -5.475459999999999772e-01 2.978946999999999790e+00 5.305159999999999876e-01 1.286891000000000007e+00 -1.754950000000000121e-01 7.205439999999999623e-01 -4.255209999999999826e-01 -1.165907000000000027e+00 -6.455699999999999772e-01 5.131829999999999448e-01 6.128630000000000466e-01 9.591579999999999551e-01 -4.767719999999999736e-01 -1.020456999999999947e+00 4.766449999999999854e-01 3.308320000000000149e-01 -1.069374000000000047e+00 1.522520000000000095e+00 3.233849999999999780e-01 -7.957490000000000396e-01 -9.876899999999999569e-01 9.338959999999999484e-01 4.369359999999999911e-01 -1.523357999999999990e+00 -1.643400000000000138e-01 -8.281499999999999972e-02 -2.327719999999999789e+00 -1.215859999999999941e+00 1.655669999999999920e-01 -1.096602999999999994e+00 7.314659999999999496e-01 9.739100000000000534e-01 -6.128740000000000299e-01 -5.324370000000000491e-01 -1.076964000000000032e+00 2.395899999999999974e-01 -5.589140000000000219e-01 -2.868220000000000214e-01 9.293479999999999519e-01 4.603659999999999974e-01 -1.009004000000000012e+00 3.393840000000000190e-01 -1.676829999999999987e-01 -1.327979999999999994e-01 1.602940000000000031e+00 7.954300000000000259e-02 8.460659999999999847e-01 -1.526955999999999980e+00 -1.922042999999999946e+00 -1.153626000000000040e+00 -1.085542999999999925e+00 -9.521000000000000296e-02 -1.469020999999999910e+00 -7.636230000000000517e-01 2.296989999999999865e-01 1.827533000000000074e+00 1.204930000000000057e+00 3.772699999999999665e-02 5.580899999999999750e-02 -2.275104999999999933e+00 1.230947000000000013e+00 1.403302999999999967e+00 -3.028826000000000018e+00 3.373399999999999732e-01 1.419065999999999939e+00 1.985109000000000012e+00 -8.409339999999999593e-01 -7.073409999999999975e-01 1.624403999999999959e+00 -2.990510000000000113e-01 -2.174240000000000061e-01 9.988000000000000211e-01 7.310330000000000439e-01 1.103779000000000066e+00 -8.915269999999999584e-01 2.669520000000000226e-01 7.970209999999999795e-01 -1.795110000000000039e-01 1.357349999999999945e-01 1.036799000000000026e+00 7.632919999999999705e-01 1.020061000000000107e+00 5.356440000000000090e-01 -3.004069999999999796e-01 6.650059999999999860e-01 -1.934619999999999951e-01 6.014009999999999634e-01 6.718380000000000463e-01 -3.338420000000000276e-01 2.837038999999999866e+00 2.442529999999999979e-01 1.795897999999999994e+00 3.950100000000000139e-02 5.916540000000000132e-01 -1.344125999999999932e+00 1.336902000000000035e+00 9.523770000000000291e-01 -7.866170000000000107e-01 2.564313999999999982e+00 -5.304550000000000098e-01 -2.440455000000000041e+00 -2.767499999999999960e-01 3.103989999999999805e-01 1.227459000000000078e+00 -2.509415999999999869e+00 -3.772039999999999837e-01 3.204300000000000204e-02 -1.263055000000000039e+00 -1.444493999999999945e+00 -1.664140000000000064e-01 -1.611976999999999993e+00 1.328120000000000134e-01 -1.343715999999999910e+00 8.024489999999999679e-01 -7.438160000000000327e-01 -4.707599999999999979e-02 1.164919000000000038e+00 -1.664420000000000066e-01 6.718399999999999928e-01 1.206592000000000109e+00 6.353379999999999583e-01 1.628970000000000029e+00 -1.209915999999999991e+00 -3.814480000000000093e-01 -7.322340000000000515e-01 -1.991060000000000052e-01 -1.199994000000000005e+00 9.019859999999999545e-01 6.990009999999999835e-01 4.257889999999999731e-01 -1.282890000000000086e+00 1.942031000000000063e+00 -7.121669999999999945e-01 -2.019341999999999970e+00 1.971990000000000132e-01 -8.988599999999999923e-01 4.799760000000000137e-01 -8.865410000000000235e-01 1.093345000000000011e+00
-2.671620000000000106e-01 -2.169729999999999992e-01 4.334699999999999664e-02 -1.367180000000000062e-01 -1.541579999999999895e-01 -1.111000000000000043e-01 -8.480699999999999350e-02 -2.662780000000000147e-01 5.180900000000000089e-02 1.243200000000000034e-02 -2.164179999999999993e-01 1.014280000000000043e-01 1.091899999999999989e-02 1.978600000000000150e-02 -2.261920000000000042e-01 -1.538800000000000064e-02 -9.987899999999999556e-02 -7.819700000000000262e-02 -4.726400000000000046e-02 -1.555100000000000093e-01 -2.067999999999999960e-03 4.723299999999999721e-02 -1.691110000000000113e-01 1.624400000000000149e-02 -1.705200000000000118e-02 -3.208170000000000188e-01 5.568499999999999839e-02 -2.588000000000000023e-02 -1.999410000000000076e-01 3.038799999999999835e-02 -2.637000000000000108e-02 4.728600000000000164e-02 9.524900000000000033e-02 -5.218799999999999828e-02 -1.746469999999999967e-01 1.268999999999999946e-03 -1.042460000000000053e-01 2.598329999999999806e-01 -6.141800000000000037e-02 1.964019999999999933e-01 9.800599999999999590e-02 -2.524600000000000108e-02 1.800809999999999911e-01 2.771600000000000175e-01 -4.812400000000000011e-02 6.407899999999999707e-02 6.622500000000000608e-02 3.456499999999999850e-02 -9.112000000000000655e-02 1.770380000000000009e-01 -9.056000000000000161e-02 1.138529999999999959e-01 1.974180000000000101e-01 1.138099999999999945e-01 3.289999999999999869e-02 1.573170000000000124e-01 3.349300000000000194e-02 9.468200000000000227e-02 1.249600000000000016e-01 -2.958699999999999872e-02 4.125800000000000300e-02 1.954150000000000054e-01 2.251500000000000029e-02 7.533999999999999898e-03 2.116889999999999883e-01 -6.514000000000000346e-02 5.012599999999999695e-02 3.577400000000000024e-02 9.311500000000000332e-02 9.374000000000000388e-02 2.761930000000000218e-01 5.166400000000000159e-02 -4.799300000000000233e-01 3.160979999999999901e-01 -2.339700000000000113e-02 6.169100000000000278e-02 -1.439419999999999866e-01 -1.008420000000000011e-01 4.838000000000000286e-03 -1.595590000000000064e-01 6.946099999999999497e-02 -4.327600000000000197e-02 -1.453579999999999872e-01 3.193000000000000092e-03 -1.339990000000000070e-01 4.722699999999999815e-02 3.700999999999999863e-03 -1.011259999999999937e-01 -6.088500000000000162e-02 -9.437500000000000056e-02 7.205400000000000693e-02 -2.340969999999999995e-01 1.086619999999999947e-01 7.428999999999999840e-03 -1.427190000000000125e-01 -3.866100000000000092e-02 -1.122689999999999938e-01 -2.345810000000000117e-01 -3.600000000000000227e-04 -5.572699999999999876e-02 -3.193630000000000080e-01 5.506699999999999789e-02 5.525599999999999956e-02 -5.197800000000000337e-02 1.301599999999999979e-02 5.423300000000000343e-02 -9.501199999999999923e-02 1.126169999999999949e-01 -1.248439999999999966e-01 -2.750139999999999807e-01 -1.402940000000000020e-01 1.492479999999999918e-01 3.349699999999999900e-01 -1.107499999999999978e-02 8.288900000000000434e-02 1.117689999999999934e-01 1.148899999999999921e-02 3.314619999999999789e-01 1.545989999999999864e-01 1.362079999999999957e-01 1.322000000000000085e-02 1.626610000000000000e-01 -7.138799999999999313e-02 1.007019999999999998e-01 -3.313900000000000179e-02 -1.273579999999999990e-01 2.417800000000000157e-02 1.085460000000000036e-01 9.683300000000000241e-02 1.263370000000000049e-01 3.216030000000000277e-01 -5.236500000000000182e-02 -5.862200000000000050e-02 1.405879999999999908e-01 1.031890000000000029e-01 6.927999999999999436e-02 1.790110000000000035e-01 -4.005399999999999933e-02 3.785899999999999682e-02 1.197109999999999980e-01 -3.432999999999999940e-02 -8.526699999999999557e-02 -3.521859999999999991e-01 2.217399999999999927e-02 -7.266100000000000336e-02 8.068300000000000471e-02 -8.056999999999999926e-03
1.791290000000000104e-01 -5.587499999999999689e-01 -2.069000000000000006e-02 4.101290000000000213e-01 5.104149999999999521e-01 5.810900000000000093e-02 1.708850000000000091e-01 5.563799999999999996e-02 -1.524560000000000082e-01 -2.173599999999999977e-01 3.230660000000000198e-01 -1.929400000000000004e-01 -4.964279999999999804e-01 7.944299999999999973e-02 1.243900000000000040e-02 1.152700000000000079e-02 3.033680000000000265e-01 -2.435599999999999918e-02 1.669800000000000104e-02 -1.640030000000000099e-01 3.020599999999999952e-01 2.701910000000000145e-01 -1.213700000000000022e-02 -3.054270000000000040e-01 2.996119999999999894e-01 -1.056060000000000054e-01 -7.252599999999999325e-02 -4.461060000000000025e-01 1.462330000000000019e-01 -2.427130000000000121e-01 2.455390000000000073e-01 5.197500000000000037e-02 -3.316359999999999864e-01 -5.084000000000000324e-02 -4.758799999999999836e-02 2.780839999999999979e-01 1.730949999999999989e-01 2.018349999999999866e-01 6.457200000000000439e-02 1.912619999999999876e-01 1.568450000000000122e-01 -1.904190000000000049e-01 4.375430000000000152e-01 5.328800000000000203e-02 1.865179999999999894e-01 2.939579999999999971e-01 -3.933249999999999802e-01 -2.812699999999999922e-02 -4.995280000000000276e-01 2.252619999999999900e-01 1.224470000000000003e-01 5.367910000000000181e-01 7.785499999999999365e-02 2.756819999999999826e-01 -1.076669999999999988e-01 -7.038800000000000612e-02 1.301390000000000047e-01 3.357649999999999801e-01 2.817379999999999884e-01 -5.450699999999999990e-02 2.954000000000000029e-02 -1.502200000000000063e-02 4.053499999999999881e-01 -6.150800000000000017e-02 9.455700000000000216e-02 1.559740000000000015e-01 -1.657689999999999997e-01 -2.473920000000000008e-01 -2.394459999999999922e-01 -1.261970000000000036e-01 3.683150000000000035e-01 -2.097449999999999870e-01 -1.868670000000000053e-01 -5.584480000000000555e-01 1.759950000000000125e-01 4.050090000000000079e-01 3.716499999999999804e-01 -1.800619999999999998e-01 -4.074559999999999849e-01 -2.535899999999999960e-02 2.826999999999999999e-02 2.868850000000000011e-01 -3.865870000000000140e-01 -1.928200000000000053e-02 -2.736399999999999944e-02 3.500730000000000230e-01 -1.493780000000000108e-01 4.819500000000000173e-02 2.484149999999999969e-01 2.885829999999999784e-01 -2.699869999999999770e-01 -3.200209999999999999e-01 -3.404670000000000196e-01 -2.793800000000000103e-02 1.637200000000000044e-01 -2.101739999999999997e-01 8.212600000000000455e-02 3.080530000000000213e-01 1.510509999999999908e-01 9.859999999999998974e-04 -8.938100000000000211e-02 -1.293179999999999885e-01 -3.605880000000000196e-01 -9.901100000000000179e-02 3.216870000000000007e-01 1.037199999999999928e-02 1.331499999999999906e-01 -2.994370000000000087e-01 -1.069940000000000058e-01 -1.525259999999999949e-01 7.933800000000000574e-02 1.012099999999999944e-01 3.763279999999999959e-01 -1.765839999999999910e-01 -1.605040000000000078e-01 -5.398239999999999705e-01 2.871790000000000176e-01 2.444969999999999921e-01 -3.289810000000000234e-01 3.305250000000000132e-01 1.598449999999999871e-01 -5.978940000000000365e-01 -2.731680000000000219e-01 -3.975090000000000012e-01 3.642960000000000087e-01 2.433170000000000055e-01 -6.472500000000000475e-02 -1.732279999999999931e-01 -1.604990000000000028e-01 -1.935100000000000015e-02 -8.033800000000000663e-02 -2.467910000000000104e-01 -9.088389999999999525e-01 -8.072500000000000508e-02 3.195040000000000102e-01 -3.893499999999999739e-01 3.171299999999999814e-02 1.672160000000000035e-01 2.674070000000000058e-01 -4.109530000000000127e-01 8.536499999999999644e-02 -1.786780000000000035e-01 3.460289999999999755e-01 -4.347099999999999853e-01 4.693550000000000222e-01 -1.657760000000000067e-01 2.154550000000000076e-01
-1.485942000000000096e+00 -1.444884999999999975e+00 7.922800000000000675e-02 1.499125999999999959e+00 -3.711400000000000254e-01 1.767603999999999953e+00 5.683129999999999571e-01 1.058761999999999981e+00 1.856549999999999867e-01 -3.475199999999999956e-01 -6.753200000000000314e-01 -8.185130000000000461e-01 8.584999999999999576e-02 1.263417999999999930e+00 1.735835000000000017e+00 -1.391361000000000070e+00 1.237422999999999940e+00 8.792290000000000383e-01 -1.342533999999999894e+00 1.245255999999999919e+00 -1.015490999999999921e+00 1.180053000000000019e+00 -4.162257999999999569e+00 -1.260173999999999905e+00 -4.608459999999999779e-01 -5.840000000000000052e-02 6.375809999999999533e-01 -3.039280000000000204e+00 -8.699480000000000546e-01 7.381750000000000256e-01 -8.470550000000000024e-01 4.106260999999999939e+00 8.817949999999999955e-01 8.779989999999999739e-01 -6.479380000000000139e-01 -4.662830000000000030e-01 3.371500000000000191e-02 6.019099999999999451e-01 -1.035841000000000012e+00 -2.375649999999999984e-01 1.504972999999999894e+00 1.494858000000000020e+00 -1.200636999999999954e+00 1.360311999999999966e+00 -1.155464000000000047e+00 -5.263090000000000268e-01 5.574080000000000146e-01 -1.608122999999999969e+00 2.430782000000000220e+00 -5.467189999999999550e-01 -3.217130000000000267e-01 -1.523289999999999922e-01 -8.899989999999999846e-01 -6.888779999999999903e-01 -3.303901000000000199e+00 2.398238000000000092e+00 1.237783000000000078e+00 -2.247780000000000111e+00 -1.909740000000000049e-01 -5.116669999999999829e-01 5.643700000000000383e-01 4.095650000000000124e-01 -5.415919999999999623e-01 -6.827600000000000335e-02 -2.154490000000000016e-01 -1.952109999999999956e-01 -1.590678999999999954e+00 1.514280000000000070e-01 7.306820000000000537e-01 3.453098999999999918e+00 2.242998000000000047e+00 3.869839999999999947e-01 -1.061217000000000077e+00 -5.708860000000000046e-01 -7.391860000000000097e-01 5.368389999999999551e-01 3.154750000000000054e-01 1.567215000000000025e+00 1.471154000000000073e+00 -1.180163000000000073e+00 -4.818479999999999985e-01 -1.024759999999999893e+00 -1.277106000000000074e+00 1.295401999999999942e+00 1.753720000000000001e-01 -1.082170000000000076e+00 1.062530000000000002e-01 3.213360000000000105e-01 -3.654769999999999963e-01 -7.280130000000000212e-01 -7.546559999999999935e-01 -1.377056999999999976e+00 -1.582092000000000054e+00 2.256813999999999876e+00 -2.439961999999999964e+00 9.462399999999999978e-02 2.041881000000000057e+00 -7.575410000000000199e-01 2.640379999999999949e-01 1.053282999999999969e+00 3.771720000000000073e-01 -8.423739999999999561e-01 8.097760000000000513e-01 7.325299999999999867e-02 1.259236000000000022e+00 -6.560489999999999933e-01 -5.644150000000000000e-01 -2.007349000000000050e+00 -9.540990000000000304e-01 1.172482000000000024e+00 2.859240000000000115e-01 -4.482019999999999893e-01 -1.118367000000000111e+00 -5.096030000000000282e-01 3.608798000000000172e+00 2.131984000000000101e+00 -2.782310000000000061e-01 -5.891140000000000265e-01 -1.224625000000000075e+00 -2.899939999999999740e-01 4.120332000000000328e+00 -9.332759999999999945e-01 2.222470000000000001e-01 -3.228170000000000206e-01 1.511519000000000057e+00 4.794600000000000251e-02 -2.980798000000000059e+00 1.400090999999999974e+00 2.664270000000000249e-01 4.338399999999999895e-02 6.510299999999999421e-02 8.020490000000000119e-01 -2.960497000000000156e+00 1.380619999999999958e+00 -5.179399999999999560e-01 -3.135580000000000034e-01 -1.858822999999999892e+00 1.140260000000000051e+00 8.165999999999999648e-02 6.365809999999999524e-01 -5.257920000000000371e-01 9.079500000000000348e-01 -1.478331000000000062e+00 -8.024799999999999711e-01 2.185890999999999806e+00 -9.010019999999999696e-01 8.168229999999999658e-01
-9.223550000000000360e-01 3.243488999999999844e+00 -1.936282000000000059e+00 -9.353799999999999615e-02 -2.892437999999999843e+00 -1.013913000000000064e+00 -1.538730000000000098e-01 -1.911791999999999936e+00 8.475359999999999561e-01 1.912981000000000043e+00 1.682933000000000012e+00 -1.998364000000000029e+00 -1.483676999999999913e+00 -2.726160000000000250e-01 -5.281040000000000179e-01 -4.188000000000000056e-01 -4.582780000000000187e-01 2.364834999999999798e+00 -1.697178000000000075e+00 -1.335531000000000024e+00 1.814659999999999884e-01 7.490409999999999568e-01 1.479398999999999909e+00 1.886365000000000069e+00 8.442849999999999522e-01 -8.983989999999999476e-01 -2.282319999999999904e-01 2.548824999999999896e+00 -1.779981000000000035e+00 4.211110000000000131e-01 1.853849999999999998e+00 7.232269999999999532e-01 -5.026669999999999749e-01 2.733639000000000152e+00 -1.538626999999999967e+00 1.316759999999999931e+00 7.527620000000000422e-01 -1.963975000000000026e+00 9.586479999999999446e-01 8.201600000000000001e-01 -2.049047999999999981e+00 -2.002206999999999848e+00 -8.600940000000000252e-01 -5.673960000000000115e-01 -8.467810000000000059e-01 2.433420000000000027e-01 -1.426371000000000056e+00 -3.117429999999999923e-01 -5.114689999999999515e-01 -1.512105999999999950e+00 1.380499999999999956e-02 -6.295209999999999972e-01 1.306670000000000054e-01 -1.067981000000000069e+00 6.675910000000000455e-01 5.927949999999999608e-01 2.109750000000000014e+00 -2.076350999999999836e+00 2.072744000000000142e+00 -9.955100000000000060e-02 2.016189999999999927e+00 -1.877985000000000015e+00 7.056900000000000395e-01 1.837439999999999962e+00 2.741137000000000157e+00 -2.021550000000000014e-01 5.818740000000000023e-01 -1.230690999999999979e+00 2.280500000000000027e-01 1.453569999999999862e-01 -1.144951000000000052e+00 -2.115898000000000057e+00 -1.419939000000000062e+00 1.718153999999999959e+00 1.630550000000000055e-01 2.338860000000000106e-01 1.474469999999999947e+00 -2.064188000000000134e+00 4.302429999999999866e-01 7.680540000000000145e-01 2.626468000000000025e+00 -1.492695000000000105e+00 6.533100000000000018e-02 3.174657999999999980e+00 -2.606243000000000087e+00 -8.700369999999999493e-01 -1.706820000000000004e-01 2.417946999999999846e+00 -8.908120000000000482e-01 1.687318000000000096e+00 4.758899999999999797e-01 1.029117999999999977e+00 2.820230000000000237e-01 -2.420160000000000089e-01 1.369799999999999907e+00 4.149360000000000270e-01 -1.753260000000000096e-01 2.656731000000000176e+00 5.287699999999999623e-01 -2.999399999999999983e-02 9.146649999999999503e-01 1.264062000000000019e+00 6.714219999999999633e-01 -1.188379000000000074e+00 8.711229999999999807e-01 -9.038239999999999608e-01 4.349290000000000100e-01 2.269529999999999881e-01 2.015052999999999983e+00 3.441949999999999732e-01 1.251300999999999997e+00 1.338057000000000052e+00 1.793080999999999925e+00 -5.212299999999999711e-01 -8.946239999999999748e-01 -1.650480000000000003e-01 1.062609999999999943e-01 -2.283714999999999939e+00 4.947929999999999828e-01 -5.689020000000000188e-01 -2.776390999999999831e+00 1.486536999999999997e+00 -7.689009999999999456e-01 2.534428000000000125e+00 -4.309141999999999584e+00 2.921699999999999853e-01 -2.400974000000000164e+00 2.640118000000000187e+00 -2.751017000000000046e+00 1.952798999999999952e+00 9.080160000000000453e-01 5.656099999999999461e-01 -4.710770000000000235e-01 -5.569690000000000474e-01 -2.903009999999999757e-01 1.060730000000000006e-01 -2.237159999999999815e+00 -7.308170000000000499e-01 -1.459748999999999963e+00 5.417939999999999978e-01 -7.230419999999999625e-01 -2.664547999999999917e+00 7.245310000000000361e-01 -1.543039999999999967e+00 -1.215165000000000051e+00 1.047023000000000037e+00 -1.502726000000000006e+00
2.655835000000000168e+00 2.981710000000000194e-01 -2.907120000000000259e-01 -4.924899999999999833e-01 3.677999999999999846e-03 3.567739999999999800e-01 -1.945840000000000070e-01 1.541287999999999991e+00 2.321900000000000006e-02 -3.082911000000000179e+00 6.073699999999999932e-02 -1.200798999999999950e+00 2.298958999999999975e+00 -1.492825999999999986e+00 -1.044950000000000045e+00 -1.493849999999999900e-01 1.837109000000000103e+00 1.474189999999999945e-01 -6.994200000000000417e-01 9.932459999999999622e-01 -2.778928000000000065e+00 -5.306650000000000533e-01 2.467030000000000056e-01 -1.809441999999999995e+00 1.357059999999999933e+00 -1.127642000000000033e+00 -7.317580000000000195e-01 1.267546000000000062e+00 -4.041270000000000140e-01 -6.305500000000000549e-01 2.222411999999999832e+00 -8.234500000000000153e-02 -1.398359999999999881e-01 -1.145644000000000107e+00 2.087946000000000080e+00 -1.164727999999999986e+00 -1.545973999999999959e+00 -2.252309999999999868e-01 4.885669999999999735e-01 -2.389070000000000082e-01 2.985709999999999753e-01 2.631625999999999799e+00 3.307789999999999897e-01 -3.268930999999999809e+00 -3.218650000000000122e-01 1.176900000000000029e-01 -1.190550999999999915e+00 7.144270000000000342e-01 -2.538210000000000188e-01 -9.951109999999999678e-01 8.701320000000000165e-01 -6.993900000000000117e-02 2.572050000000000169e-01 9.189119999999999511e-01 9.946099999999999941e-01 9.483759999999999968e-01 1.281824999999999992e+00 -8.994299999999999518e-02 -5.895500000000000185e-01 3.760530000000000261e-01 -2.429959999999999898e-01 -6.728340000000000432e-01 3.634199999999999930e-02 -1.618640000000000079e+00 1.228769999999999918e+00 1.039577999999999891e+00 9.070340000000000069e-01 8.057180000000000453e-01 -3.527000000000000274e-02 8.870999999999999996e-01 1.961910000000000043e-01 1.363320000000000087e-01 -8.511739999999999862e-01 2.822421999999999986e+00 8.519719999999999516e-01 -9.397640000000000438e-01 -4.855019999999999891e-01 1.843549999999999911e-01 -1.460693999999999937e+00 -9.967780000000000529e-01 -8.943600000000000438e-01 1.093320000000000070e+00 -2.726910000000000167e-01 8.962360000000000326e-01 1.795125000000000082e+00 -2.868479999999999919e-01 8.490079999999999849e-01 -6.040309999999999846e-01 2.993333999999999939e+00 -1.048119000000000023e+00 -2.799369999999999914e-01 -8.094189999999999996e-01 4.097480000000000011e-01 1.462313999999999892e+00 -1.463789000000000007e+00 6.468530000000000113e-01 -8.271399999999999586e-02 5.306650000000000533e-01 9.074649999999999661e-01 -5.235469999999999846e-01 1.250018000000000074e+00 -1.041149000000000102e+00 1.500536000000000092e+00 2.397640000000000049e-01 7.835670000000000135e-01 -1.098508999999999958e+00 4.954609999999999848e-01 6.965100000000000458e-02 5.969060000000000477e-01 7.984600000000000031e-02 -6.287570000000000103e-01 -2.287905999999999995e+00 -1.530048999999999992e+00 -5.996479999999999588e-01 1.577865000000000073e+00 4.748979999999999868e-01 8.010479999999999823e-01 -1.542713999999999919e+00 -1.958439999999999959e+00 -2.682599999999999985e-01 -1.854810000000000070e-01 -1.768027000000000015e+00 -7.826220000000000399e-01 -1.975282999999999900e+00 -8.347200000000000453e-02 -2.218160000000000132e-01 4.674019999999999841e-01 -1.855112000000000094e+00 4.436019999999999963e-01 5.073429999999999884e-01 -7.833900000000000585e-02 5.104640000000000288e-01 1.243943999999999939e+00 1.599423000000000039e+00 -6.292330000000000423e-01 -2.162209999999999965e+00 3.942199999999999871e-02 1.304559999999999886e-01 2.673902000000000001e+00 2.313449999999999951e-01 8.533599999999999519e-02 -2.026840000000000031e-01 3.445690000000000142e-01 -5.170409999999999728e-01 -1.405713999999999908e+00 -2.672619999999999996e-01 1.888749999999999873e-01
1.852250000000000008e-01 -3.481739999999999835e-01 4.330999999999999781e-03 3.077500000000000235e-01 -1.418419999999999959e-01 2.682869999999999977e-01 3.006340000000000123e-01 4.003800000000000137e-01 2.766569999999999863e-01 -9.615400000000000336e-02 1.515769999999999895e-01 -6.787600000000000577e-02 -1.333300000000000041e-01 -9.952079999999999815e-01 2.269819999999999893e-01 3.398899999999999838e-02 4.841099999999999848e-01 1.745780000000000109e-01 7.801500000000000101e-02 1.579180000000000028e-01 3.031299999999999967e-02 2.138259999999999883e-01 -1.333870000000000056e-01 2.766330000000000178e-01 2.856890000000000263e-01 4.687290000000000068e-01 5.367700000000000249e-02 4.122999999999999998e-01 -4.694650000000000212e-01 2.918899999999999967e-02 1.285570000000000046e-01 5.154579999999999718e-01 -7.620200000000000584e-02 1.605979999999999908e-01 8.802200000000000302e-02 1.870920000000000083e-01 -4.626990000000000269e-01 7.454399999999999915e-02 7.849999999999999339e-03 -7.422480000000000189e-01 -3.622800000000000326e-02 -3.998090000000000255e-01 1.299919999999999964e-01 -4.402989999999999959e-01 -1.741570000000000062e-01 3.752550000000000052e-01 -1.921339999999999992e-01 -8.297000000000000208e-02 3.093270000000000186e-01 1.526699999999999932e-02 2.618000000000000101e-03 -2.811420000000000030e-01 1.057699999999999960e-02 -2.547690000000000232e-01 -8.262999999999999512e-02 -3.597659999999999747e-01 3.603300000000000253e-02 1.355199999999999981e-02 1.048800000000000079e-02 -3.507750000000000035e-01 -2.550510000000000277e-01 -6.160100000000000298e-02 4.604929999999999857e-01 -3.050050000000000261e-01 -9.906600000000000128e-02 -2.130410000000000081e-01 1.127399999999999930e-02 -3.911250000000000004e-01 9.365999999999999326e-03 1.489709999999999923e-01 -1.003850000000000020e-01 -4.198180000000000245e-01 -7.507509999999999462e-01 6.889549999999999841e-01 -3.051180000000000003e-01 -3.786959999999999771e-01 2.108659999999999979e-01 -2.068899999999999906e-02 1.997529999999999861e-01 3.030329999999999968e-01 -1.723190000000000000e-01 -2.365669999999999995e-01 -6.963620000000000365e-01 5.456400000000000139e-02 -3.290649999999999964e-01 -1.370470000000000022e-01 -6.317499999999999505e-02 -2.595020000000000104e-01 -1.192629999999999940e-01 4.056420000000000026e-01 5.351059999999999706e-01 6.897759999999999447e-01 -1.140270000000000034e-01 6.145659999999999457e-01 5.785080000000000222e-01 -5.061560000000000503e-01 8.321000000000000618e-02 3.284360000000000057e-01 3.778610000000000024e-01 -2.745710000000000095e-01 3.814939999999999998e-01 -1.131629999999999997e-01 -1.957049999999999901e-01 -3.440500000000000225e-01 -3.524999999999999922e-03 4.008380000000000276e-01 1.335109999999999908e-01 4.136299999999999699e-02 2.856770000000000143e-01 -2.989749999999999908e-01 1.136719999999999953e-01 -7.575500000000000289e-02 1.099989999999999996e-01 -7.485700000000000687e-02 -7.869720000000000049e-01 -6.946599999999999997e-02 1.850700000000000123e-01 9.672300000000000342e-02 -8.165930000000000133e-01 -3.347890000000000033e-01 -7.287590000000000456e-01 -6.844600000000000684e-02 -1.553889999999999993e-01 1.014749999999999958e-01 2.889600000000000155e-02 9.419299999999999895e-02 -2.322450000000000070e-01 -7.291600000000000303e-01 2.873800000000000243e-01 4.294149999999999912e-01 -4.569700000000000151e-02 4.124229999999999841e-01 2.674799999999999955e-01 6.175910000000000011e-01 -1.673989999999999922e-01 6.216700000000000004e-02 -1.590469999999999939e-01 1.531279999999999863e-01 -8.274600000000000011e-02 5.951700000000000046e-02 2.487699999999999981e-02 2.774980000000000224e-01 3.251700000000000146e-01 2.289360000000000006e-01 2.407340000000000035e-01 4.199680000000000080e-01 -3.531850000000000267e-01