1.614649999999999919e+00 9.608200000000000074e-01 4.296369999999999578e+00 1.709750000000000103e+00 9.917799999999999949e-01 9.430030000000000356e+00 -3.527000000000000274e-02 3.357070000000000221e+00 4.394879999999999676e+00 1.080300000000000010e-01 3.628890000000000171e+00 9.154550000000000409e+00 4.579509999999999970e+00 1.048610000000000042e+00 4.468079999999999607e+00 4.664620000000000211e+00 9.857500000000000151e-01 9.328239999999999199e+00 2.887169999999999792e+00 3.721189999999999998e+00 4.456879999999999953e+00 3.192130000000000134e+00 3.886569999999999858e+00 9.269679999999999254e+00 -8.434999999999999443e-02 1.870959999999999956e+00 1.864079999999999959e+00 7.101000000000000367e-02 1.699319999999999942e+00 7.060489999999999711e+00 -1.534219999999999917e+00 4.383200000000000429e+00 1.911610000000000031e+00 -1.456479999999999997e+00 4.578219999999999956e+00 6.793420000000000236e+00 3.214090000000000114e+00 1.914879999999999916e+00 1.771810000000000107e+00 3.181130000000000013e+00 1.959330000000000016e+00 7.087080000000000268e+00 1.507970000000000033e+00 4.379360000000000142e+00 1.929629999999999956e+00 1.541570000000000107e+00 4.631219999999999892e+00 6.823949999999999960e+00 1.677699999999999969e+00 8.756599999999999939e-01 2.268299999999999983e+00 1.620060000000000056e+00 8.955100000000000282e-01 7.462959999999999816e+00 -4.177999999999999770e-02 3.547239999999999949e+00 2.656960000000000210e+00 -1.392999999999999967e-02 3.554570000000000007e+00 7.327359999999999651e+00 4.635629999999999917e+00 9.932199999999999918e-01 2.326480000000000103e+00 4.601810000000000400e+00 8.692600000000000326e-01 7.384129999999999860e+00 2.976589999999999847e+00 3.565650000000000208e+00 2.564610000000000056e+00 3.040610000000000035e+00 3.752409999999999801e+00 7.429199999999999804e+00 1.941999999999999976e-02 1.566950000000000065e+00 4.966680000000000206e+00 1.742000000000000146e-02 1.641590000000000105e+00 3.592999999999999666e-02 -1.690620000000000012e+00 4.517400000000000304e+00 4.874089999999999812e+00 -1.249700000000000033e+00 4.479580000000000339e+00 1.115000000000000019e-02 3.007820000000000160e+00 1.916789999999999994e+00 5.095060000000000144e+00 3.135940000000000172e+00 2.087419999999999831e+00 9.683189999999999742e+00 1.388190000000000035e+00 4.455700000000000216e+00 4.984300000000000175e+00 1.514529999999999932e+00 4.467600000000000016e+00 2.332000000000000045e-02
1.565919999999999979e+00 1.002000000000000002e+00 4.546619999999999884e+00 1.525770000000000071e+00 8.323099999999999943e-01 9.418369999999999465e+00 2.151000000000000134e-02 3.535470000000000113e+00 4.218589999999999840e+00 -4.427999999999999992e-02 3.588750000000000107e+00 9.418680000000000163e+00 4.661769999999999747e+00 8.180399999999999894e-01 4.424909999999999677e+00 4.616450000000000387e+00 7.659099999999999797e-01 9.230019999999999669e+00 3.080389999999999961e+00 3.624169999999999892e+00 4.306409999999999627e+00 3.012150000000000105e+00 3.543130000000000113e+00 9.410600000000000520e+00 3.339999999999999913e-02 1.735069999999999890e+00 1.804000000000000048e+00 9.443000000000000005e-02 1.898709999999999898e+00 7.051700000000000301e+00 -1.660660000000000025e+00 4.551899999999999835e+00 2.027149999999999785e+00 -1.570920000000000094e+00 4.509039999999999715e+00 6.749340000000000117e+00 3.138479999999999936e+00 1.753319999999999990e+00 1.814650000000000096e+00 3.083959999999999813e+00 1.848009999999999931e+00 6.959209999999999674e+00 1.586049999999999960e+00 4.462780000000000413e+00 1.762650000000000050e+00 1.541490000000000027e+00 4.396790000000000198e+00 6.844000000000000306e+00 1.600430000000000019e+00 8.671100000000000474e-01 2.494930000000000092e+00 1.594570000000000043e+00 8.149300000000000432e-01 7.504859999999999864e+00 -4.372999999999999804e-02 3.552999999999999936e+00 2.321950000000000180e+00 3.253999999999999948e-02 3.610189999999999788e+00 7.514009999999999856e+00 4.646460000000000257e+00 9.271500000000000297e-01 2.465800000000000214e+00 4.764929999999999666e+00 8.484699999999999465e-01 7.488000000000000433e+00 3.126079999999999970e+00 3.567190000000000083e+00 2.483319999999999972e+00 3.159419999999999895e+00 3.539410000000000167e+00 7.575610000000000177e+00 5.238000000000000295e-02 1.787439999999999918e+00 4.935640000000000249e+00 -1.197300000000000031e-01 1.693610000000000060e+00 9.806570000000000675e+00 -1.619399999999999951e+00 4.457639999999999603e+00 5.038310000000000066e+00 -1.713090000000000002e+00 4.383160000000000167e+00 7.333000000000000629e-02 3.059600000000000097e+00 1.777449999999999974e+00 4.980699999999999683e+00 3.149880000000000013e+00 1.733910000000000062e+00 9.950350000000000250e+00 1.518999999999999906e+00 4.282119999999999926e+00 4.989589999999999748e+00 1.566449999999999898e+00 4.569860000000000255e+00 4.589000000000000024e-02
1.543779999999999930e+00 8.269499999999999629e-01 4.476729999999999876e+00 1.640079999999999982e+00 7.642099999999999449e-01 9.237759999999999749e+00 -2.021999999999999839e-02 3.536519999999999886e+00 4.443539999999999601e+00 -3.960999999999999938e-02 3.553220000000000045e+00 9.308080000000000354e+00 4.667720000000000091e+00 9.291700000000000514e-01 4.372250000000000192e+00 4.772100000000000009e+00 9.534700000000000397e-01 9.396399999999999864e+00 3.183149999999999924e+00 3.620220000000000216e+00 4.339000000000000412e+00 2.986779999999999990e+00 3.777299999999999880e+00 9.527189999999999159e+00 9.600999999999999812e-02 1.820670000000000011e+00 1.692320000000000046e+00 1.125199999999999950e-01 1.811239999999999961e+00 6.978979999999999961e+00 -1.612340000000000106e+00 4.421820000000000306e+00 2.033139999999999947e+00 -1.497929999999999984e+00 4.572320000000000384e+00 6.930530000000000079e+00 3.044200000000000017e+00 1.731289999999999996e+00 1.912989999999999968e+00 3.166199999999999903e+00 1.837089999999999890e+00 6.802889999999999660e+00 1.300210000000000088e+00 4.478589999999999627e+00 1.959529999999999994e+00 1.664900000000000047e+00 4.486760000000000304e+00 6.951749999999999652e+00 1.566480000000000095e+00 8.290800000000000392e-01 2.651860000000000106e+00 1.718800000000000106e+00 8.760400000000000409e-01 7.371500000000000163e+00 -7.545999999999999930e-02 3.548550000000000093e+00 2.573059999999999903e+00 8.253000000000000613e-02 3.753919999999999924e+00 7.553239999999999732e+00 4.689840000000000231e+00 8.954199999999999937e-01 2.193970000000000198e+00 4.752220000000000333e+00 1.000129999999999963e+00 7.518279999999999852e+00 2.919449999999999878e+00 3.509720000000000173e+00 2.456139999999999990e+00 3.201550000000000118e+00 3.672670000000000101e+00 7.582869999999999777e+00 1.671600000000000030e-01 1.812610000000000054e+00 5.085560000000000080e+00 1.426800000000000013e-01 1.772420000000000107e+00 9.872640000000000526e+00 -1.454919999999999991e+00 4.527140000000000164e+00 5.176110000000000433e+00 -1.588240000000000096e+00 4.631969999999999921e+00 1.811599999999999877e-01 3.221260000000000012e+00 1.893569999999999975e+00 4.895069999999999588e+00 2.932900000000000063e+00 1.795309999999999961e+00 1.134300000000000030e-01 1.566130000000000022e+00 4.569239999999999746e+00 4.946710000000000385e+00 1.454199999999999937e+00 4.611229999999999940e+00 6.174999999999999933e-02
1.521640000000000104e+00 9.941100000000000492e-01 4.342270000000000074e+00 1.639829999999999899e+00 1.013300000000000090e+00 9.371650000000000702e+00 1.944799999999999862e-01 3.637700000000000156e+00 4.419150000000000134e+00 1.533499999999999863e-01 3.756990000000000052e+00 9.362890000000000157e+00 4.694420000000000037e+00 1.007190000000000030e+00 4.264980000000000437e+00 4.763770000000000060e+00 9.671199999999999797e-01 9.211220000000000852e+00 3.326410000000000089e+00 3.617220000000000102e+00 4.370969999999999800e+00 3.347240000000000215e+00 3.633070000000000022e+00 9.274319999999999453e+00 -1.583499999999999908e-01 1.890740000000000087e+00 1.935699999999999976e+00 -8.797000000000000652e-02 1.817220000000000057e+00 7.038759999999999906e+00 -1.454420000000000046e+00 4.573459999999999859e+00 1.805420000000000025e+00 -1.504510000000000014e+00 4.549310000000000187e+00 6.733660000000000423e+00 2.966600000000000126e+00 1.796810000000000018e+00 1.948239999999999972e+00 3.079689999999999817e+00 1.766119999999999912e+00 6.785309999999999953e+00 1.708409999999999984e+00 4.490400000000000169e+00 2.035629999999999828e+00 1.740159999999999929e+00 4.382369999999999877e+00 6.800950000000000273e+00 1.438439999999999941e+00 8.060699999999999532e-01 2.439700000000000202e+00 1.554119999999999946e+00 1.057839999999999892e+00 7.411900000000000155e+00 5.356000000000000344e-02 3.633169999999999789e+00 2.381790000000000074e+00 1.589800000000000102e-01 3.700349999999999806e+00 7.205510000000000304e+00 4.464000000000000412e+00 8.877199999999999536e-01 2.313369999999999926e+00 4.551190000000000069e+00 7.928199999999999692e-01 7.427909999999999791e+00 3.186589999999999812e+00 3.470889999999999809e+00 2.432249999999999801e+00 3.255700000000000038e+00 3.738379999999999814e+00 7.359750000000000014e+00 2.576000000000000165e-02 1.880630000000000024e+00 5.077890000000000015e+00 1.369799999999999907e-01 1.893229999999999968e+00 9.819860000000000255e+00 -1.366069999999999895e+00 4.421109999999999651e+00 4.885320000000000107e+00 -1.430010000000000003e+00 4.523259999999999614e+00 1.809999999999999977e-03 3.129840000000000177e+00 1.854980000000000073e+00 4.944379999999999775e+00 3.108010000000000161e+00 1.846530000000000005e+00 4.116999999999999826e-02 1.803299999999999903e+00 4.609950000000000436e+00 4.821119999999999628e+00 1.825469999999999926e+00 4.577569999999999695e+00 9.800769999999999982e+00
1.581329999999999902e+00 8.355099999999999749e-01 4.222459999999999880e+00 1.671429999999999971e+00 1.039349999999999996e+00 9.254889999999999617e+00 -4.064999999999999863e-02 3.582190000000000207e+00 4.325490000000000279e+00 1.064000000000000015e-02 3.609900000000000109e+00 9.107620000000000715e+00 4.626030000000000086e+00 8.692900000000000071e-01 4.327130000000000365e+00 4.669599999999999973e+00 9.252799999999999914e-01 9.091179999999999595e+00 3.062730000000000175e+00 3.634669999999999845e+00 4.318299999999999805e+00 3.113259999999999916e+00 3.709540000000000060e+00 9.268039999999999168e+00 -3.055000000000000077e-02 1.812810000000000032e+00 1.996660000000000101e+00 5.496999999999999803e-02 1.616880000000000095e+00 6.792970000000000397e+00 -1.583479999999999999e+00 4.568719999999999892e+00 1.896190000000000042e+00 -1.609860000000000069e+00 4.462229999999999919e+00 6.690010000000000012e+00 3.150959999999999983e+00 1.787230000000000096e+00 1.835169999999999968e+00 3.118650000000000144e+00 1.855879999999999974e+00 6.632900000000000240e+00 1.515390000000000015e+00 4.407119999999999926e+00 1.968010000000000037e+00 1.413200000000000012e+00 4.469299999999999606e+00 6.791210000000000413e+00 1.537130000000000107e+00 8.372600000000000042e-01 2.507649999999999935e+00 1.575029999999999930e+00 8.586099999999999843e-01 7.311779999999999724e+00 -1.142399999999999943e-01 3.544399999999999995e+00 2.427770000000000206e+00 -8.321000000000000618e-02 3.459029999999999827e+00 7.264490000000000336e+00 4.667919999999999625e+00 8.912499999999999867e-01 2.430930000000000035e+00 4.616699999999999804e+00 8.012799999999999923e-01 7.305290000000000283e+00 3.031579999999999941e+00 3.588820000000000121e+00 2.479680000000000106e+00 2.982299999999999951e+00 3.506609999999999783e+00 7.418790000000000440e+00 1.600699999999999901e-01 1.807220000000000049e+00 4.914869999999999628e+00 -9.485000000000000375e-02 1.773879999999999901e+00 9.622999999999999610e-02 -1.533230000000000093e+00 4.503840000000000288e+00 4.915110000000000312e+00 -1.549719999999999986e+00 4.581809999999999938e+00 5.525999999999999662e-02 3.128089999999999815e+00 1.877720000000000056e+00 4.814980000000000260e+00 3.336949999999999861e+00 1.857089999999999907e+00 5.109999999999999959e-02 1.580950000000000077e+00 4.505950000000000344e+00 4.918449999999999989e+00 1.515009999999999968e+00 4.543610000000000149e+00 9.778859999999999886e+00
1.626880000000000104e+00 7.512699999999999934e-01 4.497370000000000090e+00 1.679510000000000058e+00 8.892600000000000504e-01 9.519170000000000798e+00 2.567099999999999937e-01 3.721659999999999968e+00 4.543420000000000236e+00 1.823799999999999866e-01 3.526889999999999858e+00 9.590189999999999770e+00 4.762570000000000192e+00 8.884300000000000530e-01 4.502589999999999648e+00 4.700630000000000308e+00 1.064410000000000078e+00 9.413819999999999411e+00 3.295720000000000205e+00 3.636589999999999989e+00 4.653559999999999697e+00 3.338150000000000173e+00 3.405269999999999797e+00 9.440220000000000056e+00 1.124300000000000022e-01 1.803800000000000070e+00 1.972660000000000080e+00 9.847999999999999809e-02 1.768829999999999902e+00 7.062929999999999708e+00 -1.650300000000000100e+00 4.504979999999999762e+00 1.754080000000000084e+00 -1.398719999999999963e+00 4.373680000000000234e+00 7.030850000000000044e+00 3.143790000000000084e+00 1.721090000000000009e+00 1.839879999999999960e+00 3.283020000000000049e+00 1.646589999999999998e+00 6.814000000000000057e+00 1.496040000000000036e+00 4.536979999999999791e+00 1.975579999999999892e+00 1.668150000000000022e+00 4.459209999999999674e+00 7.056230000000000224e+00 1.564140000000000086e+00 1.002129999999999965e+00 2.548919999999999852e+00 1.738499999999999934e+00 8.742799999999999461e-01 7.532910000000000217e+00 -1.627099999999999935e-01 3.648480000000000167e+00 2.636410000000000142e+00 1.810700000000000087e-01 3.593669999999999920e+00 7.518519999999999648e+00 4.785219999999999807e+00 8.955199999999999827e-01 2.518310000000000048e+00 4.706629999999999647e+00 7.909899999999999709e-01 7.480590000000000295e+00 3.127270000000000216e+00 3.585220000000000073e+00 2.404780000000000140e+00 3.184470000000000134e+00 3.398750000000000160e+00 7.579299999999999926e+00 9.345000000000000528e-02 1.779959999999999987e+00 5.004699999999999704e+00 7.091000000000000081e-02 1.691089999999999982e+00 9.897679999999999367e+00 -1.362190000000000012e+00 4.414439999999999920e+00 5.140509999999999913e+00 -1.382200000000000095e+00 4.518799999999999706e+00 9.950570000000000803e+00 3.187660000000000160e+00 1.777030000000000109e+00 5.027689999999999770e+00 3.076750000000000096e+00 1.784739999999999993e+00 1.615000000000000116e-02 1.672379999999999978e+00 4.551759999999999806e+00 4.959430000000000227e+00 1.639140000000000041e+00 4.622760000000000424e+00 7.385999999999999510e-02
1.464879999999999960e+00 8.562100000000000266e-01 4.399379999999999846e+00 1.523949999999999916e+00 7.495500000000000496e-01 9.423759999999999692e+00 -5.093999999999999917e-02 3.633169999999999789e+00 4.379249999999999865e+00 2.500000000000000139e-02 3.427200000000000024e+00 9.317280000000000229e+00 4.598779999999999646e+00 6.741800000000000015e-01 4.563710000000000377e+00 4.457200000000000273e+00 8.923100000000000476e-01 9.301819999999999311e+00 3.244470000000000187e+00 3.546990000000000087e+00 4.501900000000000013e+00 3.034499999999999975e+00 3.352279999999999927e+00 9.265990000000000393e+00 -1.636999999999999914e-02 1.851669999999999927e+00 1.877170000000000005e+00 -2.014000000000000165e-02 1.861669999999999936e+00 6.923399999999999999e+00 -1.563420000000000032e+00 4.502889999999999837e+00 1.952800000000000091e+00 -1.662590000000000012e+00 4.534099999999999575e+00 6.866629999999999789e+00 3.057980000000000143e+00 1.643780000000000019e+00 1.939170000000000060e+00 3.103260000000000129e+00 1.726760000000000073e+00 6.800989999999999647e+00 1.459379999999999900e+00 4.538289999999999935e+00 1.894339999999999913e+00 1.577469999999999928e+00 4.343860000000000277e+00 6.709600000000000009e+00 1.474709999999999965e+00 9.414099999999999691e-01 2.478219999999999867e+00 1.498979999999999979e+00 1.015589999999999993e+00 7.432750000000000412e+00 6.155000000000000054e-02 3.573319999999999830e+00 2.557160000000000100e+00 5.961000000000000326e-02 3.540109999999999868e+00 7.450120000000000076e+00 4.662130000000000329e+00 9.659100000000000463e-01 2.326519999999999921e+00 4.615750000000000242e+00 8.390400000000000080e-01 7.340889999999999915e+00 3.111069999999999780e+00 3.631660000000000110e+00 2.443589999999999929e+00 3.131460000000000132e+00 3.599180000000000046e+00 7.310360000000000191e+00 -1.654999999999999874e-02 1.826009999999999911e+00 4.954500000000000348e+00 9.064999999999999447e-02 1.719799999999999995e+00 9.893290000000000362e+00 -1.441370000000000040e+00 4.577549999999999564e+00 5.026110000000000078e+00 -1.551930000000000032e+00 4.318800000000000416e+00 9.766120000000000800e+00 3.207759999999999945e+00 1.718490000000000073e+00 4.979320000000000412e+00 3.095169999999999977e+00 1.736590000000000078e+00 2.194000000000000117e-02 1.634959999999999969e+00 4.386709999999999887e+00 4.974310000000000009e+00 1.508499999999999952e+00 4.424109999999999765e+00 9.827080000000000481e+00
1.525039999999999951e+00 9.076499999999999568e-01 4.348860000000000170e+00 1.775439999999999907e+00 6.283699999999999841e-01 9.325570000000000803e+00 -7.482999999999999374e-02 3.781480000000000175e+00 4.327270000000000394e+00 1.435200000000000087e-01 3.390620000000000189e+00 9.258520000000000749e+00 4.603909999999999947e+00 9.690499999999999670e-01 4.335650000000000226e+00 4.757019999999999804e+00 1.007290000000000019e+00 9.220470000000000610e+00 2.949879999999999836e+00 3.730780000000000207e+00 4.377609999999999779e+00 3.065819999999999990e+00 3.449530000000000207e+00 9.473839999999999151e+00 1.397599999999999953e-01 1.554489999999999927e+00 1.889979999999999993e+00 2.030700000000000005e-01 1.888449999999999962e+00 6.790040000000000298e+00 -1.437159999999999993e+00 4.213420000000000165e+00 2.003049999999999997e+00 -1.549679999999999946e+00 4.526040000000000063e+00 6.760019999999999918e+00 3.047099999999999920e+00 1.883590000000000098e+00 2.049739999999999895e+00 3.072579999999999867e+00 1.820349999999999913e+00 6.940269999999999939e+00 1.478820000000000023e+00 4.597879999999999967e+00 1.890239999999999920e+00 1.417140000000000066e+00 4.676770000000000316e+00 6.905730000000000146e+00 1.678260000000000085e+00 6.404600000000000293e-01 2.515899999999999803e+00 1.681189999999999962e+00 7.946299999999999475e-01 7.422100000000000364e+00 1.547399999999999887e-01 3.398649999999999949e+00 2.495299999999999851e+00 5.036999999999999811e-02 3.670469999999999899e+00 7.434520000000000017e+00 4.740859999999999630e+00 1.089269999999999960e+00 2.428519999999999790e+00 4.891140000000000043e+00 1.062670000000000003e+00 7.275879999999999903e+00 2.950959999999999805e+00 3.706999999999999851e+00 2.544719999999999871e+00 3.077879999999999949e+00 3.682819999999999983e+00 7.351679999999999993e+00 7.807000000000000051e-02 1.951049999999999951e+00 4.839789999999999814e+00 9.271999999999999686e-02 1.589040000000000008e+00 1.837000000000000091e-02 -1.596470000000000056e+00 4.602669999999999817e+00 5.007369999999999877e+00 -1.484129999999999949e+00 4.092179999999999929e+00 1.456000000000000072e-01 3.113510000000000222e+00 1.772739999999999982e+00 5.005659999999999776e+00 3.008970000000000145e+00 1.695079999999999920e+00 9.389999999999999736e-02 1.555560000000000054e+00 4.691530000000000200e+00 5.054229999999999556e+00 1.487679999999999891e+00 4.524350000000000094e+00 3.219999999999999946e-02
1.908500000000000085e+00 8.501800000000000468e-01 4.278069999999999595e+00 1.216059999999999919e+00 6.360799999999999788e-01 9.369249999999999190e+00 2.423599999999999921e-01 3.459449999999999914e+00 4.300029999999999575e+00 3.767999999999999822e-02 3.653169999999999806e+00 9.386340000000000572e+00 4.670819999999999972e+00 9.570600000000000218e-01 4.271340000000000359e+00 4.515349999999999753e+00 8.600700000000000012e-01 9.304729999999999279e+00 3.363849999999999785e+00 3.537749999999999950e+00 4.418879999999999697e+00 3.097179999999999822e+00 3.490169999999999995e+00 9.216910000000000380e+00 -1.130700000000000038e-01 1.916160000000000085e+00 1.864020000000000010e+00 3.024999999999999911e-02 1.763779999999999903e+00 6.805659999999999599e+00 -1.491910000000000069e+00 4.425749999999999851e+00 1.896719999999999962e+00 -1.265179999999999971e+00 4.373750000000000249e+00 6.776880000000000237e+00 3.119850000000000012e+00 1.784859999999999891e+00 1.873080000000000078e+00 3.156120000000000037e+00 1.663629999999999942e+00 6.879059999999999953e+00 1.740730000000000111e+00 4.454039999999999999e+00 2.024059999999999970e+00 1.711170000000000080e+00 4.537160000000000082e+00 6.707790000000000141e+00 1.499390000000000001e+00 1.001770000000000049e+00 2.296730000000000160e+00 1.609290000000000109e+00 7.085099999999999731e-01 7.374010000000000176e+00 1.170800000000000035e-01 3.630959999999999965e+00 2.404760000000000009e+00 1.236499999999999960e-01 3.598580000000000112e+00 7.365850000000000009e+00 4.618750000000000355e+00 9.793899999999999828e-01 2.397520000000000095e+00 4.734600000000000364e+00 8.986300000000000399e-01 7.500149999999999650e+00 3.282350000000000101e+00 3.620719999999999938e+00 2.592530000000000001e+00 3.258710000000000218e+00 3.623139999999999805e+00 7.321130000000000138e+00 2.869000000000000022e-02 1.695310000000000095e+00 4.913789999999999658e+00 -8.613999999999999435e-02 1.796990000000000087e+00 1.745999999999999983e-02 -1.245379999999999932e+00 4.367009999999999614e+00 4.909229999999999983e+00 -1.651189999999999936e+00 4.392830000000000013e+00 8.502999999999999448e-02 3.267669999999999852e+00 1.860670000000000046e+00 5.000320000000000320e+00 3.074640000000000040e+00 1.861760000000000081e+00 8.142000000000000626e-02 1.775779999999999914e+00 4.462799999999999656e+00 4.893690000000000317e+00 1.514650000000000052e+00 4.453789999999999694e+00 3.823000000000000009e-02
1.496960000000000068e+00 1.027379999999999960e+00 4.553790000000000227e+00 1.501710000000000100e+00 9.212799999999999878e-01 9.355420000000000513e+00 2.974399999999999822e-01 3.830270000000000064e+00 4.167639999999999567e+00 -9.074000000000000121e-02 3.900609999999999911e+00 9.411670000000000869e+00 4.776740000000000208e+00 9.778999999999999915e-01 4.574449999999999683e+00 4.788109999999999644e+00 8.977899999999999769e-01 9.235559999999999548e+00 3.372930000000000206e+00 3.627450000000000063e+00 4.235129999999999839e+00 3.096480000000000121e+00 3.463830000000000187e+00 9.374750000000000583e+00 -9.292000000000000259e-02 1.905119999999999925e+00 1.812359999999999971e+00 -3.935999999999999915e-02 1.960569999999999924e+00 6.958779999999999966e+00 -1.457430000000000003e+00 4.632819999999999716e+00 1.826789999999999914e+00 -1.566249999999999920e+00 4.460549999999999571e+00 6.892220000000000013e+00 3.072379999999999889e+00 1.729819999999999913e+00 2.215419999999999945e+00 3.161119999999999930e+00 1.819949999999999957e+00 6.830140000000000100e+00 1.665610000000000035e+00 4.425930000000000142e+00 1.847820000000000018e+00 1.683110000000000106e+00 4.535400000000000098e+00 6.805959999999999788e+00 1.414409999999999945e+00 9.707900000000000418e-01 2.612299999999999844e+00 1.491000000000000103e+00 9.703800000000000203e-01 7.187170000000000059e+00 1.148600000000000038e-01 3.667590000000000128e+00 2.332440000000000069e+00 1.351100000000000079e-01 3.748930000000000096e+00 7.565339999999999954e+00 4.703870000000000218e+00 9.027500000000000524e-01 2.417370000000000019e+00 4.729280000000000150e+00 9.814300000000000246e-01 7.378049999999999997e+00 3.304679999999999840e+00 3.538009999999999877e+00 2.414449999999999985e+00 3.190469999999999917e+00 3.446039999999999992e+00 7.410739999999999661e+00 4.247000000000000081e-02 2.028309999999999835e+00 4.887900000000000134e+00 4.084000000000000130e-02 1.969870000000000010e+00 8.230999999999999428e-02 -1.455659999999999954e+00 4.573660000000000281e+00 4.997779999999999667e+00 -1.729079999999999950e+00 4.553069999999999951e+00 9.843809999999999505e+00 3.182770000000000099e+00 1.700260000000000105e+00 4.856029999999999625e+00 3.048449999999999882e+00 1.460599999999999898e+00 1.719400000000000095e-01 1.866689999999999960e+00 4.493640000000000079e+00 4.961979999999999613e+00 1.681189999999999962e+00 4.529329999999999856e+00 9.747419999999999973e+00
1.512999999999999901e+00 8.439999999999999725e-01 4.494780000000000442e+00 1.629010000000000069e+00 7.058200000000000029e-01 9.496019999999999683e+00 1.412599999999999967e-01 3.512519999999999865e+00 4.335759999999999614e+00 1.076899999999999941e-01 3.337819999999999787e+00 9.264989999999999171e+00 4.742270000000000429e+00 9.794100000000000028e-01 4.442499999999999893e+00 4.735710000000000086e+00 7.852599999999999580e-01 9.209469999999999601e+00 3.054499999999999993e+00 3.489110000000000156e+00 4.407930000000000348e+00 3.107920000000000016e+00 3.577069999999999972e+00 9.215970000000000439e+00 -6.678000000000000602e-02 1.992860000000000076e+00 1.836200000000000054e+00 8.449999999999999178e-03 1.722900000000000098e+00 6.880829999999999558e+00 -1.653529999999999944e+00 4.627430000000000376e+00 1.807309999999999972e+00 -1.498019999999999907e+00 4.606359999999999566e+00 6.835350000000000037e+00 3.189839999999999787e+00 1.826340000000000074e+00 1.881440000000000001e+00 2.980170000000000208e+00 1.898200000000000109e+00 6.772199999999999775e+00 1.577579999999999982e+00 4.294740000000000002e+00 1.857460000000000111e+00 1.657149999999999901e+00 4.531220000000000248e+00 6.961490000000000400e+00 1.599220000000000086e+00 1.028950000000000031e+00 2.339929999999999843e+00 1.353250000000000064e+00 9.674599999999999866e-01 7.602380000000000138e+00 -8.416999999999999482e-02 3.719250000000000167e+00 2.507839999999999847e+00 1.474399999999999877e-01 3.526819999999999844e+00 7.506389999999999674e+00 4.833389999999999631e+00 7.818199999999999594e-01 2.504340000000000011e+00 4.505930000000000213e+00 9.375700000000000145e-01 7.436759999999999593e+00 3.090079999999999938e+00 3.668660000000000032e+00 2.555880000000000152e+00 3.048160000000000203e+00 3.588299999999999823e+00 7.319099999999999717e+00 1.270900000000000085e-01 1.805730000000000057e+00 5.051910000000000345e+00 -1.694999999999999979e-02 1.602100000000000080e+00 9.917540000000000688e+00 -1.483800000000000008e+00 4.382789999999999964e+00 4.999080000000000190e+00 -1.584070000000000089e+00 4.294699999999999740e+00 4.660999999999999865e-02 3.089020000000000099e+00 1.663780000000000037e+00 4.944770000000000110e+00 3.258589999999999876e+00 1.875650000000000039e+00 9.934229999999999450e+00 1.752909999999999968e+00 4.427039999999999864e+00 4.978150000000000297e+00 1.374509999999999899e+00 4.257130000000000081e+00 2.813999999999999835e-02
1.416500000000000092e+00 1.182690000000000019e+00 4.511840000000000295e+00 1.660679999999999934e+00 6.733700000000000241e-01 9.463549999999999685e+00 -1.436499999999999999e-01 3.735700000000000021e+00 4.447460000000000413e+00 5.995999999999999941e-02 3.348570000000000046e+00 9.339280000000000470e+00 4.597929999999999851e+00 8.314099999999999824e-01 4.447339999999999627e+00 4.490610000000000213e+00 5.382099999999999662e-01 9.309010000000000673e+00 3.215920000000000112e+00 3.598360000000000003e+00 4.347559999999999647e+00 3.089409999999999989e+00 3.599349999999999827e+00 9.653779999999999362e+00 -6.356000000000000538e-02 1.822640000000000038e+00 1.774950000000000028e+00 -2.703999999999999737e-01 1.935899999999999954e+00 6.770450000000000301e+00 -1.373380000000000045e+00 4.469269999999999854e+00 1.813960000000000017e+00 -1.630309999999999926e+00 4.614790000000000170e+00 7.040239999999999831e+00 3.114970000000000017e+00 1.680060000000000109e+00 1.937689999999999912e+00 3.060459999999999958e+00 1.866910000000000069e+00 6.905129999999999768e+00 1.478180000000000049e+00 4.279219999999999580e+00 1.916379999999999972e+00 1.678709999999999924e+00 4.246830000000000105e+00 6.887170000000000236e+00 1.395140000000000047e+00 9.572500000000000453e-01 2.590720000000000134e+00 1.441899999999999959e+00 1.292189999999999950e+00 7.579439999999999955e+00 3.124000000000000041e-02 3.485650000000000137e+00 2.678080000000000016e+00 -3.166000000000000064e-02 3.650300000000000100e+00 7.575280000000000236e+00 4.571360000000000312e+00 7.777199999999999669e-01 2.397619999999999862e+00 4.594479999999999897e+00 7.167200000000000237e-01 7.378610000000000113e+00 3.290119999999999933e+00 3.580529999999999990e+00 2.552010000000000112e+00 3.301499999999999879e+00 3.529160000000000075e+00 7.606760000000000410e+00 -2.066800000000000026e-01 1.828340000000000076e+00 4.815229999999999677e+00 3.253000000000000336e-02 1.544790000000000108e+00 9.901820000000000732e+00 -1.622640000000000082e+00 4.700109999999999566e+00 4.981130000000000280e+00 -1.403270000000000017e+00 4.354330000000000034e+00 5.015000000000000013e-02 3.150110000000000188e+00 1.807949999999999946e+00 4.979499999999999815e+00 3.074260000000000215e+00 1.689589999999999925e+00 4.549000000000000266e-02 1.505819999999999936e+00 4.281579999999999941e+00 4.899899999999999700e+00 1.498359999999999914e+00 4.297990000000000421e+00 9.976639999999999731e+00