-2.935565059300000144e+02
-2.954200122199999896e+02
-2.918876870600000188e+02
-2.932286415400000124e+02
-2.920664087600000016e+02
-2.962509345799999778e+02
-2.947124138500000186e+02
-2.921573325800000021e+02
-2.959991178600000126e+02
-2.919745139699999754e+02
-2.954414745600000174e+02
-2.971896028699999874e+02
-2.929819227599999749e+02
-2.979878090000000270e+02
-2.945025944500000037e+02
-2.958550146000000041e+02
-2.937902680700000246e+02
-2.953688320200000135e+02
-2.960905983900000251e+02
-2.957630231800000047e+02
-2.922505102299999749e+02
-2.918925004899999749e+02
-2.925893167599999742e+02
-2.963930234900000187e+02
-2.954966647400000284e+02
-2.967130170600000270e+02
-2.955904881899999737e+02
-2.916829433799999833e+02
-2.958896598599999948e+02
-2.945879132900000172e+02
-2.957495050900000138e+02
-2.951138092599999823e+02
-2.921559442500000046e+02
-2.953868839500000263e+02
-2.924885214799999744e+02
-2.930407381800000053e+02
-2.952545671899999888e+02
-2.923663325399999735e+02
-2.962784435199999962e+02
-2.959953636100000267e+02
-2.925802235699999869e+02
-2.953567061699999954e+02
-2.916802756800000225e+02
-2.965055458100000010e+02
-2.961511811099999818e+02
-2.932916387399999962e+02
-2.925792584800000213e+02
-2.960097609599999942e+02
-2.922628043999999932e+02
-2.970620358799999963e+02
