6.230279290000000358e+00 0.000000000000000000e+00 0.000000000000000000e+00 -3.203177365999999804e+00 5.220816587999999925e+00 0.000000000000000000e+00 -1.907094940000000072e-01 -2.191358640000000135e-01 9.677712947999999926e+00
6.067689330000000325e+00 0.000000000000000000e+00 0.000000000000000000e+00 -2.943966454999999982e+00 5.346445601000000103e+00 0.000000000000000000e+00 5.534859400000000096e-02 -1.248945229999999934e-01 1.012216181299999995e+01
6.349669734999999982e+00 0.000000000000000000e+00 0.000000000000000000e+00 -3.196560584999999843e+00 5.470879705999999842e+00 0.000000000000000000e+00 5.880209200000000025e-02 1.170158619999999983e-01 1.021111528199999974e+01
6.278824656000000282e+00 0.000000000000000000e+00 0.000000000000000000e+00 -3.359473558999999998e+00 5.573174823000000444e+00 0.000000000000000000e+00 -2.221121169999999978e-01 -2.357966669999999876e-01 9.984190995000000513e+00
6.250602753999999983e+00 0.000000000000000000e+00 0.000000000000000000e+00 -2.995781910999999909e+00 5.382415542000000386e+00 0.000000000000000000e+00 -8.909461400000000253e-02 -1.579443259999999960e-01 1.001670399600000039e+01
6.144243517999999682e+00 0.000000000000000000e+00 0.000000000000000000e+00 -3.089077473000000129e+00 5.321780262999999955e+00 0.000000000000000000e+00 -1.152460919999999944e-01 -1.028010959999999946e-01 9.811548109000000295e+00
6.113626804999999997e+00 0.000000000000000000e+00 0.000000000000000000e+00 -3.054687498999999917e+00 5.278513386000000196e+00 0.000000000000000000e+00 2.018539299999999939e-02 -3.166673000000000057e-03 9.813795772000000639e+00
6.140827988999999931e+00 0.000000000000000000e+00 0.000000000000000000e+00 -3.037919781999999902e+00 5.577245268000000422e+00 0.000000000000000000e+00 3.193515000000000242e-02 7.847408000000000161e-02 1.026767354599999926e+01
6.240471678999999661e+00 0.000000000000000000e+00 0.000000000000000000e+00 -3.077458315999999972e+00 5.487966014999999587e+00 0.000000000000000000e+00 2.016872600000000140e-02 -1.630258179999999890e-01 1.003804082499999950e+01
6.284939467000000057e+00 0.000000000000000000e+00 0.000000000000000000e+00 -3.151314741000000197e+00 5.478130573999999697e+00 0.000000000000000000e+00 -1.097915999999999996e-02 -2.026415540000000015e-01 9.779267224999999897e+00
6.141011933999999783e+00 0.000000000000000000e+00 0.000000000000000000e+00 -3.118308795999999994e+00 5.324308206999999626e+00 0.000000000000000000e+00 -8.331036099999999944e-02 -1.989221959999999956e-01 9.996619636000000142e+00
6.070674535000000205e+00 0.000000000000000000e+00 0.000000000000000000e+00 -3.001623452000000025e+00 5.397170322000000020e+00 0.000000000000000000e+00 3.234716209999999870e-01 -2.996254780000000006e-01 1.008201086799999935e+01
6.269724662999999865e+00 0.000000000000000000e+00 0.000000000000000000e+00 -3.182670359999999921e+00 5.227933801999999908e+00 0.000000000000000000e+00 -1.207372969999999934e-01 -1.478965999999999892e-01 9.795180997999999306e+00
6.171700189000000059e+00 0.000000000000000000e+00 0.000000000000000000e+00 -3.203428822999999870e+00 5.423065106000000135e+00 0.000000000000000000e+00 -2.351141850000000033e-01 -2.904566630000000038e-01 9.938834211999999724e+00
6.207955298999999982e+00 0.000000000000000000e+00 0.000000000000000000e+00 -3.049647395000000039e+00 5.490680100999999702e+00 0.000000000000000000e+00 -3.200276999999999983e-02 6.614010500000000459e-02 9.951005330999999288e+00
6.345498989000000201e+00 0.000000000000000000e+00 0.000000000000000000e+00 -3.191787981000000052e+00 5.485332604999999973e+00 0.000000000000000000e+00 1.074792229999999987e-01 1.355644430000000067e-01 9.927117898000000551e+00
6.308068807999999805e+00 0.000000000000000000e+00 0.000000000000000000e+00 -3.153206571000000125e+00 5.374461128000000087e+00 0.000000000000000000e+00 1.296746200000000078e-02 6.284532399999999408e-02 1.004627306599999947e+01
6.373773646000000070e+00 0.000000000000000000e+00 0.000000000000000000e+00 -3.090708713000000163e+00 5.403174765000000157e+00 0.000000000000000000e+00 -3.752345700000000311e-02 -1.374075170000000068e-01 9.641665975000000444e+00
6.135078627999999590e+00 0.000000000000000000e+00 0.000000000000000000e+00 -2.976581147000000094e+00 5.362675953000000106e+00 0.000000000000000000e+00 1.278623409999999905e-01 1.615785799999999994e-01 9.784454399999999552e+00
6.311431228000000004e+00 0.000000000000000000e+00 0.000000000000000000e+00 -3.176864759999999954e+00 5.405407622000000245e+00 0.000000000000000000e+00 3.731434799999999719e-02 -1.120806439999999932e-01 1.003100860300000008e+01
6.374033725000000317e+00 0.000000000000000000e+00 0.000000000000000000e+00 -3.173696727999999911e+00 5.228792696000000184e+00 0.000000000000000000e+00 -1.634018789999999999e-01 4.674617710000000259e-01 1.002218037399999950e+01
6.205343197000000366e+00 0.000000000000000000e+00 0.000000000000000000e+00 -3.075242867000000047e+00 5.433994764000000366e+00 0.000000000000000000e+00 8.172238800000000691e-02 2.929574649999999725e-01 9.586171716999999148e+00
6.068723495999999606e+00 0.000000000000000000e+00 0.000000000000000000e+00 -3.046867205999999939e+00 5.333377856000000250e+00 0.000000000000000000e+00 4.737954199999999672e-02 1.336097679999999899e-01 9.801999293999999807e+00
6.121651252000000376e+00 0.000000000000000000e+00 0.000000000000000000e+00 -3.079977861000000150e+00 5.385634516999999732e+00 0.000000000000000000e+00 -5.197204999999999880e-02 -9.280720400000000425e-02 9.616204421999999141e+00
6.280595405999999770e+00 0.000000000000000000e+00 0.000000000000000000e+00 -3.127020374999999852e+00 5.416834344999999828e+00 0.000000000000000000e+00 -1.231674029999999948e-01 3.275949499999999959e-02 1.030113199200000018e+01
6.284552954999999663e+00 0.000000000000000000e+00 0.000000000000000000e+00 -3.181874982000000074e+00 5.490758431999999800e+00 0.000000000000000000e+00 2.247848990000000102e-01 -2.584161119999999756e-01 1.018465697799999958e+01
6.406150084000000078e+00 0.000000000000000000e+00 0.000000000000000000e+00 -3.201179785999999972e+00 5.455036477000000161e+00 0.000000000000000000e+00 -2.537356000000000160e-03 -1.178182499999999924e-02 1.020440963599999940e+01
6.231532112000000012e+00 0.000000000000000000e+00 0.000000000000000000e+00 -3.117871694000000193e+00 5.289232496000000339e+00 0.000000000000000000e+00 -8.820761999999999353e-03 -3.041823499999999833e-02 9.533976649999999609e+00
6.170144488000000038e+00 0.000000000000000000e+00 0.000000000000000000e+00 -2.969148706999999998e+00 5.302193578999999879e+00 0.000000000000000000e+00 -6.900217000000000156e-02 -2.391719419999999985e-01 9.934962261000000794e+00
6.163723841000000370e+00 0.000000000000000000e+00 0.000000000000000000e+00 -3.131524812999999963e+00 5.397930524999999591e+00 0.000000000000000000e+00 5.113840100000000000e-02 2.677532479999999993e-01 9.689848536999999595e+00
6.169636708999999719e+00 0.000000000000000000e+00 0.000000000000000000e+00 -3.086774133000000031e+00 5.307435678000000046e+00 0.000000000000000000e+00 4.829292799999999886e-02 2.552675189999999983e-01 1.005333228699999992e+01
6.265917424000000402e+00 0.000000000000000000e+00 0.000000000000000000e+00 -3.104914734999999926e+00 5.460247847999999848e+00 0.000000000000000000e+00 -2.935146799999999861e-02 -3.372274699999999736e-02 1.002153138799999965e+01
6.201573200000000341e+00 0.000000000000000000e+00 0.000000000000000000e+00 -3.119963786000000017e+00 5.443154932999999751e+00 0.000000000000000000e+00 1.151948299999999981e-01 2.681102800000000064e-02 1.026951574599999972e+01
6.220210354999999858e+00 0.000000000000000000e+00 0.000000000000000000e+00 -3.191387159000000029e+00 5.342498563999999561e+00 0.000000000000000000e+00 3.727630299999999675e-02 7.371167500000000428e-02 1.012523649999999975e+01
6.308026122000000235e+00 0.000000000000000000e+00 0.000000000000000000e+00 -3.151345445000000023e+00 5.402521344000000170e+00 0.000000000000000000e+00 6.842004000000000141e-02 7.540517200000000642e-02 9.870683253999999351e+00
6.089943434000000266e+00 0.000000000000000000e+00 0.000000000000000000e+00 -3.056382044999999881e+00 5.368987886000000209e+00 0.000000000000000000e+00 2.517354499999999856e-02 1.992770650000000032e-01 9.976603354999999951e+00
6.206654662000000044e+00 0.000000000000000000e+00 0.000000000000000000e+00 -2.968174346000000074e+00 5.311185483000000040e+00 0.000000000000000000e+00 4.107808450000000056e-01 4.619982770000000127e-01 1.009306328699999966e+01
6.315382989999999808e+00 0.000000000000000000e+00 0.000000000000000000e+00 -3.138158638000000167e+00 5.464421929000000233e+00 0.000000000000000000e+00 -2.655774909999999989e-01 2.590032179999999795e-01 9.959454831000000397e+00
6.259324367999999694e+00 0.000000000000000000e+00 0.000000000000000000e+00 -3.025564090000000039e+00 5.378631934000000392e+00 0.000000000000000000e+00 1.292801110000000031e-01 1.216251470000000029e-01 1.007163663599999914e+01
6.394667716999999918e+00 0.000000000000000000e+00 0.000000000000000000e+00 -3.080355281000000112e+00 5.229804083000000325e+00 0.000000000000000000e+00 3.063223760000000073e-01 4.558416559999999840e-01 9.967480889999999150e+00
6.101008196000000439e+00 0.000000000000000000e+00 0.000000000000000000e+00 -3.092475880999999927e+00 5.528381593999999843e+00 0.000000000000000000e+00 -2.722298140000000144e-01 -2.830431740000000085e-01 1.002580408899999931e+01
6.151946576000000277e+00 0.000000000000000000e+00 0.000000000000000000e+00 -3.031642070000000189e+00 5.363667577000000186e+00 0.000000000000000000e+00 -1.068872460000000052e-01 -1.483769999999999924e-03 1.007280905400000037e+01
6.287944433999999916e+00 0.000000000000000000e+00 0.000000000000000000e+00 -3.227918654000000220e+00 5.263464257999999951e+00 0.000000000000000000e+00 -1.908505819999999908e-01 -2.318693669999999929e-01 9.877023029000000065e+00
6.344889597999999964e+00 0.000000000000000000e+00 0.000000000000000000e+00 -3.190291451999999861e+00 5.482644736000000130e+00 0.000000000000000000e+00 -2.379022999999999902e-02 6.420778900000000122e-02 9.971256350999999185e+00
6.053832930999999640e+00 0.000000000000000000e+00 0.000000000000000000e+00 -2.973413352000000121e+00 5.410652033999999944e+00 0.000000000000000000e+00 1.222649289999999944e-01 1.042800769999999988e-01 1.001978890500000041e+01
6.318663961999999579e+00 0.000000000000000000e+00 0.000000000000000000e+00 -3.065895934999999906e+00 5.458453879000000342e+00 0.000000000000000000e+00 1.739262510000000039e-01 3.098585580000000061e-01 9.964933738999999235e+00
6.244706940999999567e+00 0.000000000000000000e+00 0.000000000000000000e+00 -3.094042958999999815e+00 5.413161166000000080e+00 0.000000000000000000e+00 -2.909297400000000061e-02 -5.009100400000000147e-02 9.547465942000000538e+00
6.165094795999999988e+00 0.000000000000000000e+00 0.000000000000000000e+00 -3.083308199000000194e+00 5.393776051999999765e+00 0.000000000000000000e+00 1.776802699999999874e-02 2.965801479999999879e-01 9.959418486000000570e+00
6.150010980000000238e+00 0.000000000000000000e+00 0.000000000000000000e+00 -3.135408978000000069e+00 5.338629425999999789e+00 0.000000000000000000e+00 1.290920939999999906e-01 -8.326235799999999465e-02 1.021724585900000015e+01
6.308206114999999947e+00 0.000000000000000000e+00 0.000000000000000000e+00 -3.167639337999999860e+00 5.444748912999999746e+00 0.000000000000000000e+00 7.430660299999999885e-02 1.072911339999999963e-01 1.030175195500000029e+01
