8.542570000000000441e-01 1.116069999999999895e+00 -1.415210000000000079e-01 -7.222199999999999731e-01 1.490480000000000027e+00 -1.604510000000000103e-01 -3.742369999999999863e-01 -1.305669999999999886e-01 -1.123307999999999973e+00 -1.320662999999999920e+00 -2.880050000000000110e-01 5.513149999999999995e-01 -1.374414000000000025e+00 4.459520000000000151e-01 1.417928999999999995e+00 -7.250210000000000266e-01 1.144533999999999940e+00 3.133699999999999680e-02 1.499624000000000068e+00 -2.233759999999999912e-01 6.526659999999999684e-01 4.550400000000000000e-01 -8.597010000000000485e-01 2.498950000000000060e-01 6.457559999999999967e-01 -1.354630000000000001e+00 -3.844009999999999927e-01 -7.262880000000000447e-01 1.469487999999999905e+00 7.251499999999999613e-02 4.397539999999999782e-01 -5.472240000000000437e-01 5.211899999999999866e-02 -1.372393999999999892e+00 -1.446676999999999991e+00 9.754799999999999582e-02 -1.150889999999999969e+00 -7.505330000000000057e-01 -7.488999999999999997e-03 -4.052620000000000111e-01 -2.057910000000000017e-01 1.088103000000000042e+00 -8.156999999999999321e-03 -5.098799999999999860e-02 -9.155240000000000045e-01 2.477810000000000012e-01 -1.618058999999999914e+00 -8.196430000000000105e-01 -8.932400000000000062e-02 6.811479999999999757e-01 3.025499999999999856e-01 9.566080000000000139e-01 1.353901999999999939e+00 4.470910000000000162e-01 -2.285590000000000122e-01 2.610485000000000166e+00 6.874149999999999983e-01 5.232609999999999761e-01 3.469039999999999901e-01 2.693169999999999731e-01 2.202510000000000023e-01 -3.994719999999999938e-01 -1.641882000000000064e+00 3.879049999999999998e-01 -7.875440000000000218e-01 1.107464000000000004e+00 4.537999999999999812e-01 4.601970000000000227e-01 -1.693100000000000160e-02 -4.106500000000000150e-01 4.409259999999999846e-01 -1.685956000000000010e+00 6.020280000000000076e-01 -7.010140000000000260e-01 7.995099999999999429e-02 -8.193559999999999732e-01 -1.789978999999999987e+00 -5.423059999999999548e-01 1.733743999999999952e+00 -1.415672000000000041e+00 7.989969999999999573e-01 4.661390000000000255e-01 -2.586930000000000063e-01 -1.844581000000000026e+00 7.287019999999999609e-01 -4.260000000000000006e-04 1.787130000000000107e-01 -6.079010000000000247e-01 5.935120000000000395e-01 4.481419999999999848e-01 1.206860000000000016e-01 6.747520000000000184e-01 7.509249999999999536e-01
1.213211000000000039e+00 2.955309999999999881e+00 -2.207323000000000146e+00 -5.504480000000000484e-01 -1.909261000000000097e+00 -1.715918000000000054e+00 -6.933869999999999756e-01 8.539170000000000371e-01 1.022160000000000013e-01 -3.218399999999999928e+00 2.441856000000000027e+00 -4.338040000000000229e-01 1.099736999999999965e+00 -2.012465999999999866e+00 -6.398460000000000258e-01 1.842378000000000071e+00 1.688679999999999959e+00 1.551817999999999920e+00 2.956949999999999856e-01 3.400078000000000156e+00 -1.140358999999999901e+00 3.614123999999999892e+00 3.167999999999999983e-02 -1.717457999999999929e+00 6.181640000000000468e-01 -9.660769999999999635e-01 -1.269627999999999979e+00 -8.675129999999999786e-01 4.026060000000000194e-01 -1.517152999999999974e+00 2.643616000000000188e+00 9.528140000000000498e-01 -5.644000000000000128e-01 -1.660120999999999958e+00 4.548699999999999966e-02 2.349330000000000029e-01 -4.313844999999999708e+00 2.740533000000000108e+00 -6.028559999999999475e-01 -1.295215000000000005e+00 -5.492699999999999666e-02 9.580769999999999564e-01 -5.066239999999999633e-01 1.753419999999999979e+00 1.633483999999999936e+00 2.019149000000000083e+00 -1.976549999999999974e-01 -3.390442999999999873e+00 2.419769999999999976e-01 -9.267079999999999762e-01 7.164709999999999690e-01 -1.260475000000000012e+00 -1.977589999999999959e+00 7.785180000000000433e-01 3.393999999999999795e-02 1.677146000000000026e+00 1.013144000000000045e+00 1.851317000000000101e+00 -1.434291999999999900e+00 -9.613930000000000531e-01 3.362026999999999877e+00 -4.640990000000000393e+00 1.410935000000000050e+00 2.479557999999999929e+00 -1.240021000000000040e+00 6.294429999999999747e-01 -1.770413999999999932e+00 6.428460000000000285e-01 -1.601493000000000055e+00 -1.037045999999999912e+00 4.003265999999999991e+00 -2.529999999999999957e-02 -1.962285999999999975e+00 -1.720207000000000042e+00 2.853589999999999738e-01 2.703139000000000181e+00 -2.027296000000000209e+00 3.208829999999999738e-01 8.366679999999999673e-01 -1.588244999999999907e+00 1.552939999999999987e+00 -1.735255999999999910e+00 -1.280980000000000008e+00 1.668528000000000011e+00 -2.527699999999999947e-01 4.028260000000000174e-01 2.141758999999999968e+00 -2.273108999999999824e+00 -2.516239000000000114e+00 1.893229999999999913e-01 -1.457791999999999977e+00 5.004889999999999617e-01 2.599543999999999855e+00
1.219149999999999956e-01 -5.276200000000000334e-02 1.574440000000000062e+00 7.525819999999999732e-01 3.912097000000000158e+00 -1.420282999999999962e+00 -5.432479999999999531e-01 -2.296570000000000000e-01 2.080670000000000019e-01 4.375400000000000122e-02 1.755520000000000136e-01 1.531120000000000037e+00 1.615700000000000122e-02 1.158570000000000016e-01 -2.493704000000000143e+00 4.355599999999999750e-02 -4.503860000000000086e-01 -1.255257999999999985e+00 -2.939684000000000186e+00 -1.612338999999999967e+00 -8.049589999999999801e-01 3.720490000000000186e-01 -1.843417000000000083e+00 5.178059999999999885e-01 2.528839999999999977e-01 2.176934999999999842e+00 1.844669999999999921e-01 8.420999999999999319e-02 -7.164589999999999570e-01 -1.469221000000000110e+00 -1.643179999999999918e-01 -3.367166999999999799e+00 -1.256178999999999935e+00 -4.138800000000000257e-01 -1.390474999999999905e+00 3.746591000000000005e+00 -1.318656000000000050e+00 8.376500000000000057e-01 -6.893390000000000351e-01 -1.201270999999999978e+00 6.810159999999999547e-01 -4.879560000000000008e-01 7.017999999999999794e-01 -2.234980000000000189e+00 1.592707000000000095e+00 1.610946999999999907e+00 5.474700000000000122e-01 -1.350414999999999921e+00 -1.259541999999999939e+00 -2.120849999999999957e-01 1.161332999999999949e+00 2.908310000000000062e-01 2.430293999999999954e+00 2.695431999999999828e+00 -2.654489999999999905e-01 3.455059999999999798e-01 1.580492000000000008e+00 -2.836600000000000232e-01 -7.344819999999999682e-01 2.788802000000000003e+00 1.345237000000000016e+00 -6.939399999999999735e-02 1.313228000000000062e+00 3.446549999999999891e-01 -2.085865000000000080e+00 1.330861000000000072e+00 9.936669999999999670e-01 8.005689999999999751e-01 9.033600000000000518e-01 2.971679999999999877e-01 1.298097999999999974e+00 2.791685000000000194e+00 6.929000000000000263e-03 -9.174499999999999322e-02 -2.377358000000000082e+00 3.180579999999999963e+00 8.328489999999999505e-01 -3.629548999999999914e+00 2.942699999999999760e-01 -1.156593999999999900e+00 9.024569999999999537e-01 -1.514904999999999946e+00 2.444919000000000064e+00 -1.553822999999999954e+00 -1.126751999999999976e+00 -9.364999999999999991e-01 1.417899999999999994e-01 1.516912000000000038e+00 -6.668309999999999516e-01 -1.656166000000000027e+00 -1.238739999999999952e+00 1.252326999999999968e+00 -4.520427999999999891e+00
3.083899999999999836e-02 -8.248029999999999529e-01 -1.326170000000000126e-01 1.740150000000000030e-01 -1.514713999999999894e+00 2.497219999999999995e-01 -8.348830000000000418e-01 2.049825999999999926e+00 -1.086602999999999986e+00 1.225368999999999930e+00 -6.436720000000000219e-01 1.051242000000000010e+00 -8.526770000000000183e-01 1.755049999999999999e+00 -8.309370000000000367e-01 -1.994973000000000107e+00 -7.715210000000000123e-01 1.579947999999999908e+00 9.302259999999999973e-01 7.755469999999999864e-01 1.968909999999999938e+00 -2.365596000000000032e+00 2.097634999999999916e+00 -6.011950000000000349e-01 -1.451979999999999937e-01 -2.018993000000000038e+00 -1.427025999999999906e+00 -8.836589999999999723e-01 2.406095000000000095e+00 -7.038149999999999684e-01 -2.462257000000000140e+00 -1.909150000000000014e-01 -8.699050000000000393e-01 9.957770000000000232e-01 -1.464194999999999913e+00 -1.078732999999999942e+00 1.000453999999999954e+00 3.153670000000000084e-01 1.883337000000000039e+00 1.142919999999999936e+00 1.124619000000000035e+00 1.526216000000000017e+00 1.979794999999999972e+00 -3.324050000000000060e-01 1.235100000000000087e-02 -1.426969999999999905e-01 2.082983000000000029e+00 1.820820000000000105e+00 -7.720169999999999533e-01 1.899402000000000035e+00 1.939089999999999980e-01 1.137828999999999979e+00 -1.152679999999999927e+00 6.716210000000000235e-01 -1.223462000000000049e+00 -1.419810999999999934e+00 1.311898000000000009e+00 6.315169999999999950e-01 -1.132449000000000039e+00 -2.718874000000000013e+00 2.469339999999999868e-01 -1.752970000000000084e-01 -1.064890000000000003e-01 -3.376549999999999829e-01 1.522300000000000042e-02 -1.448363999999999985e+00 2.444729999999999959e-01 -4.958529999999999882e-01 -2.872170999999999808e+00 -4.008999999999999786e-01 -6.548460000000000392e-01 5.024739999999999762e-01 1.092457000000000011e+00 5.681720000000000104e-01 8.540170000000000261e-01 2.483105999999999813e+00 8.671309999999999851e-01 -5.447659999999999725e-01 2.271730000000000138e-01 1.848379999999999912e+00 1.203797000000000006e+00 3.314420000000000144e-01 -1.542265999999999915e+00 -1.328043000000000085e+00 -8.410760000000000458e-01 -3.022139000000000131e+00 -7.738450000000000051e-01 -2.424694999999999823e+00 -1.120268999999999959e+00 6.033950000000000147e-01 1.807417999999999969e+00 6.713989999999999680e-01 1.089722999999999997e+00
5.136479999999999935e-01 -3.534189999999999832e-01 2.006979999999999875e-01 -8.713159999999999794e-01 4.640150000000000219e+00 -2.393568000000000140e+00 7.697420000000000373e-01 6.919140000000000290e-01 -2.944338000000000122e+00 -3.559629999999999739e-01 -1.170563999999999938e+00 -7.569409999999999750e-01 -1.496609999999999885e-01 1.898940000000000072e-01 3.626570000000000071e-01 4.057359999999999856e-01 -4.524560000000000248e-01 -1.637199999999999989e+00 -5.752779999999999561e-01 -2.668499999999999761e-01 4.868140000000000245e-01 -1.148303000000000074e+00 1.991839999999999999e-01 -1.595600000000000074e-01 3.732090000000000130e-01 -1.231198000000000015e+00 -2.472129999999999883e-01 -1.558299999999999963e-02 -5.310270000000000268e-01 4.112370000000000192e-01 5.137209999999999832e-01 -4.322770000000000223e-01 4.270999999999999797e-02 -1.114006999999999969e+00 1.004312000000000094e+00 1.327374999999999972e+00 1.368532000000000082e+00 9.813439999999999941e-01 1.202389999999999987e-01 5.597309999999999786e-01 5.710950000000000193e-01 -1.801190000000000013e-01 2.713700000000000140e-02 -1.172600000000000031e-01 1.949812000000000101e+00 9.868590000000000417e-01 1.053889000000000076e+00 6.289599999999999358e-02 -1.610910000000000120e-01 -5.174349999999999783e-01 5.297910000000000119e-01 2.909100000000000019e-01 -2.354103999999999974e+00 3.362020000000000008e-01 1.435154000000000041e+00 7.536040000000000516e-01 3.955049999999999955e-01 -1.266238999999999892e+00 1.590435999999999961e+00 -6.636170000000000124e-01 -1.965024000000000104e+00 -7.873280000000000278e-01 -2.151879999999999904e-01 4.188870000000000093e-01 -2.236521000000000203e+00 1.556098999999999899e+00 -1.824850000000000083e-01 -2.491339999999999943e-01 1.574581999999999926e+00 -1.643219999999999958e-01 3.686200000000000032e-01 -1.348230999999999957e+00 7.507920000000000149e-01 -1.097360000000000002e-01 8.968019999999999881e-01 -1.674493999999999927e+00 6.362839999999999607e-01 -1.213900000000000048e-02 1.248874999999999957e+00 -1.776038000000000006e+00 4.486999999999999877e-01 -6.441989999999999661e-01 4.510129999999999972e-01 -1.881551999999999891e+00 -3.625349999999999961e-01 -1.380689999999999973e-01 1.485157000000000060e+00 9.797940000000000538e-01 -1.907429999999999959e-01 -2.487399999999999889e-01 7.775999999999999926e-03 -2.175819999999999976e-01 5.011320000000000219e-01
6.894949999999999690e-01 7.311349999999999794e-01 4.430830000000000046e-01 6.849650000000000460e-01 -6.319660000000000277e-01 1.887564999999999937e+00 -8.908699999999999952e-02 2.046070000000000111e-01 -8.170330000000000092e-01 -5.071029999999999704e-01 6.722350000000000270e-01 6.404809999999999670e-01 1.297599999999999865e-01 -1.339655000000000040e+00 4.948759999999999826e-01 -5.215440000000000076e-01 9.353799999999999892e-01 3.351509000000000071e+00 7.750860000000000527e-01 4.643390000000000017e-01 2.718829999999999858e-01 -1.008245999999999976e+00 -1.769287000000000054e+00 -9.687249999999999472e-01 -2.322660000000000002e-01 6.264950000000000241e-01 -2.438641000000000059e+00 1.263450000000000129e-01 1.089519999999999933e-01 2.561149999999999816e-01 7.456059999999999910e-01 -5.230179999999999829e-01 -4.091060000000000252e-01 -1.188350000000000017e+00 1.158477999999999897e+00 1.478482999999999992e+00 -6.985320000000000418e-01 1.157451999999999925e+00 -1.735298000000000007e+00 4.354830000000000090e-01 -6.622489999999999766e-01 7.522520000000000318e-01 -6.590989999999999904e-01 1.336511000000000005e+00 1.486186000000000007e+00 -5.568119999999999736e-01 -1.348835000000000006e+00 3.646670000000000189e-01 6.130529999999999591e-01 5.862039999999999473e-01 1.709539999999999949e-01 -4.493199999999999972e-02 -6.557290000000000063e-01 -1.220396999999999954e+00 6.858419999999999517e-01 6.288780000000000481e-01 -4.788900000000000101e-02 1.850394000000000094e+00 4.738660000000000094e-01 -5.266300000000000425e-01 -2.481190000000000062e-01 -1.560772999999999966e+00 -5.226220000000000310e-01 -7.733839999999999604e-01 -2.294940000000000035e-01 -2.373317999999999817e+00 2.134040000000000104e-01 -1.354085999999999901e+00 -6.058160000000000212e-01 -5.367800000000000349e-01 1.429755000000000109e+00 7.724630000000000107e-01 5.066000000000000503e-01 -3.818059999999999787e-01 7.250140000000000473e-01 -1.414520000000000000e+00 -1.263611000000000040e+00 -5.540699999999999514e-01 6.952730000000000299e-01 6.348089999999999566e-01 -1.639430000000000054e-01 2.073329999999999895e-01 -5.443580000000000085e-01 5.593339999999999979e-01 -5.599210000000000020e-01 2.600645999999999791e+00 -4.306539999999999813e-01 -7.226320000000000521e-01 2.586689999999999823e-01 4.398670000000000080e-01 1.402689999999999992e+00 -1.743544999999999900e+00 -1.280591000000000035e+00
-4.520500000000000212e-02 -1.241860000000000047e-01 8.999000000000000055e-03 2.106280000000000097e-01 -2.414169999999999927e-01 -4.588249999999999829e-01 3.090010000000000256e-01 3.160859999999999781e-01 9.746599999999999708e-02 -3.113179999999999836e-01 1.259799999999999982e-02 4.578119999999999967e-01 1.130840000000000040e-01 -3.257920000000000260e-01 -4.588490000000000069e-01 -4.930500000000000160e-02 1.158980000000000010e-01 -5.956499999999999989e-02 6.171349999999999891e-01 -5.816810000000000036e-01 -4.810420000000000251e-01 3.229759999999999853e-01 -3.434070000000000178e-01 4.462280000000000135e-01 3.159900000000000209e-02 -4.364000000000000101e-01 4.452429999999999999e-01 -2.409340000000000093e-01 -5.417579999999999618e-01 1.905090000000000117e-01 1.235979999999999995e-01 -3.022270000000000234e-01 1.152620000000000033e-01 7.062999999999999834e-02 5.249800000000000300e-02 -4.655770000000000186e-01 1.551939999999999986e-01 4.599340000000000095e-01 4.345990000000000131e-01 -1.900940000000000130e-01 -2.848430000000000129e-01 -6.673499999999999988e-01 3.358979999999999744e-01 -4.592419999999999836e-01 4.185599999999999737e-02 -2.479649999999999910e-01 8.352400000000000102e-02 -4.562510000000000177e-01 2.168660000000000032e-01 5.398900000000000227e-02 -7.774790000000000312e-01 3.437009999999999788e-01 -2.040240000000000109e-01 3.199270000000000169e-01 -4.707009999999999805e-01 6.659399999999999764e-01 -4.786679999999999824e-01 4.927700000000000136e-02 8.661499999999999755e-01 6.173399999999999721e-02 -1.254949999999999954e-01 1.808730000000000060e-01 -2.980880000000000196e-01 -1.570169999999999899e-01 -1.734870000000000023e-01 -6.926999999999999824e-02 -2.995120000000000005e-01 -9.460000000000000353e-02 2.611379999999999812e-01 3.249290000000000234e-01 3.854600000000000248e-01 3.899569999999999981e-01 -6.649499999999999855e-02 3.209119999999999751e-01 -2.092819999999999958e-01 3.037499999999999922e-02 -3.092920000000000114e-01 6.082819999999999894e-01 -4.549429999999999863e-01 -4.722199999999999731e-01 9.587000000000000036e-03 -2.861999999999999961e-02 5.727510000000000101e-01 7.785370000000000346e-01 -5.055699999999999777e-02 8.749489999999999768e-01 -2.666999999999999926e-02 -8.648099999999999676e-01 2.695870000000000211e-01 3.680829999999999935e-01 3.480809999999999738e-01 -3.365710000000000091e-01 -1.283019999999999994e-01
-5.166169999999999929e-01 1.071514999999999995e+00 -1.909141999999999895e+00 -5.146800000000000264e-01 3.061909999999999910e-01 -3.623600000000000154e-01 2.403143000000000029e+00 -5.819649999999999546e-01 -9.659149999999999681e-01 -4.553719999999999990e-01 -1.487532000000000076e+00 1.834167000000000103e+00 -1.495373000000000063e+00 1.502469999999999972e+00 3.414739999999999998e-01 4.649010000000000087e-01 2.683072999999999819e+00 -8.089880000000000404e-01 9.496590000000000309e-01 -1.653753000000000029e+00 -1.310677000000000092e+00 1.514671000000000101e+00 -2.254398999999999820e+00 1.446759999999999990e-01 -3.127402000000000015e+00 1.360311999999999966e+00 -1.246191999999999966e+00 3.688910000000000244e-01 2.173325999999999869e+00 8.548829999999999485e-01 1.503214999999999968e+00 1.148355999999999932e+00 -2.699710000000000165e-01 1.175538999999999890e+00 5.208199999999999497e-01 2.808022999999999936e+00 -4.715300000000000047e-02 4.227369999999999739e-01 6.547889999999999544e-01 2.420139999999999958e+00 2.365775999999999879e+00 6.218960000000000043e-01 1.297166000000000041e+00 -2.886549999999999949e-01 8.080580000000000540e-01 -7.179800000000000071e-02 8.796490000000000142e-01 -1.338292000000000037e+00 3.228489000000000164e+00 -2.505062999999999818e+00 3.211019999999999985e-01 -2.044083999999999790e+00 5.155119999999999703e-01 -7.686530000000000307e-01 -3.145958999999999950e+00 -1.952740000000000031e-01 3.003560000000000119e-01 -3.631690000000000196e-01 -2.254309999999999814e+00 -1.402333999999999969e+00 6.311280000000000223e-01 6.393539999999999779e-01 1.106022000000000061e+00 -9.584399999999999864e-02 -1.699527999999999928e+00 1.164870999999999990e+00 2.700620000000000243e-01 -2.516229999999999856e-01 6.719570000000000265e-01 -4.226790000000000269e-01 -6.128479999999999484e-01 -1.421632999999999925e+00 -4.787790000000000101e-01 -4.603970000000000007e-01 -4.703309999999999991e-01 9.161799999999999944e-01 -1.273729999999999862e-01 4.804269999999999929e-01 -1.600319000000000047e+00 6.867379999999999596e-01 1.288488999999999995e+00 1.581190000000000095e-01 -7.569690000000000030e-01 1.675339999999999885e-01 1.890260999999999969e+00 -5.463390000000000191e-01 -1.295798999999999923e+00 -3.000525000000000109e+00 4.002689999999999859e-01 -5.317800000000000304e-02 -1.811814000000000036e+00 -1.000067999999999957e+00 5.473700000000000093e-02
-1.440822999999999965e+00 -7.991740000000000510e-01 1.179238999999999926e+00 1.599540000000000128e-01 7.512940000000000174e-01 -2.589779999999999860e-01 -7.399609999999999799e-01 -6.838830000000000187e-01 -7.502499999999999725e-01 2.684810000000000252e-01 9.940899999999999737e-02 4.571209999999999996e-01 1.050488000000000088e+00 -1.750221000000000027e+00 1.657299000000000078e+00 4.217699999999999783e-01 -2.333050000000000124e-01 -2.166250000000000120e-01 9.462540000000000395e-01 1.794548999999999950e+00 2.761830000000000118e-01 -9.277590000000000003e-01 -9.043550000000000200e-01 1.240091999999999972e+00 -1.688570000000000071e-01 -4.712149999999999950e-01 -1.451710000000000056e+00 3.229029999999999956e-01 -2.221957999999999878e+00 -7.317350000000000243e-01 -1.195579999999999976e-01 -2.978779999999999983e+00 9.993889999999999718e-01 -7.011030000000000317e-01 7.621109999999999829e-01 -7.294920000000000293e-01 -4.927929999999999811e-01 5.589269999999999516e-01 3.262600000000000222e-02 -2.274039999999999950e-01 -2.709639999999999826e-01 -1.445645000000000069e+00 6.233130000000000059e-01 -7.816070000000000517e-01 3.649286000000000030e+00 1.028677000000000064e+00 4.080150000000000166e-01 2.035693999999999892e+00 -4.402989999999999959e-01 2.161674999999999791e+00 1.272577999999999987e+00 -1.036499000000000059e+00 5.816489999999999716e-01 1.550024000000000068e+00 -1.275481000000000087e+00 -4.157199999999999784e-01 -1.271249000000000073e+00 -1.435413000000000050e+00 1.113318000000000030e+00 -1.365798000000000068e+00 1.437567000000000039e+00 1.477295000000000025e+00 -9.220840000000000147e-01 1.095904999999999907e+00 6.580230000000000246e-01 -6.429999999999999952e-03 1.353399999999999916e-02 1.525930000000000064e-01 -4.505399999999999683e-02 1.313339999999999952e+00 1.535100000000000076e-01 -1.671090000000000075e-01 -2.540939999999999865e-01 -1.108910000000000062e+00 -2.707100000000000131e-02 -1.067940000000000000e-01 -3.259199999999999875e-01 -6.749380000000000379e-01 -8.032280000000000530e-01 6.221079999999999943e-01 1.182460000000000039e-01 5.335339999999999527e-01 6.472299999999999720e-01 -5.725789999999999491e-01 -6.465290000000000203e-01 5.751619999999999511e-01 -2.912787999999999933e+00 6.960490000000000288e-01 9.652279999999999749e-01 -1.183609999999999940e-01 9.048270000000000479e-01 -5.360840000000000050e-01 -7.998809999999999532e-01
-1.315447999999999951e+00 -1.771663999999999906e+00 2.749550000000000050e-01 -1.983873999999999915e+00 2.304099999999999898e-02 -2.281930000000000069e-01 -6.139300000000000312e-02 3.308699999999999974e-01 -8.021999999999999964e-02 1.006077000000000110e+00 1.454218000000000011e+00 5.076100000000000056e-01 -1.510730000000000128e-01 7.090070000000000539e-01 -1.022731000000000057e+00 -1.088845999999999981e+00 1.524323000000000095e+00 -1.145313999999999943e+00 -6.359979999999999523e-01 -2.359116000000000213e+00 -1.436344000000000065e+00 9.924910000000000121e-01 1.042659999999999976e-01 -6.507279999999999731e-01 9.105360000000000120e-01 -1.834181000000000061e+00 2.696339999999999848e-01 -1.248299000000000047e+00 -6.711439999999999628e-01 -1.122849999999999959e-01 2.283779999999999977e-01 7.134999999999999849e-03 -1.192060000000000064e-01 -1.167089999999999933e-01 -7.924200000000000688e-02 2.248256000000000032e+00 7.580080000000000151e-01 8.567120000000000291e-01 -1.569439000000000028e+00 5.134389999999999787e-01 8.226200000000000179e-01 7.164760000000000018e-01 -2.326744000000000145e+00 4.009559999999999791e-01 -1.781779000000000002e+00 -1.601412000000000058e+00 -3.565670000000000228e-01 -3.987430000000000141e-01 -1.539571000000000023e+00 3.188150000000000150e-01 -9.448860000000000037e-01 -2.297510000000000108e-01 -1.562837000000000032e+00 5.634029999999999871e-01 3.046179999999999999e-01 7.174350000000000449e-01 2.982949999999999768e-01 9.195780000000000065e-01 7.104669999999999597e-01 -3.748800000000000049e-02 1.619890999999999970e+00 -3.691539999999999822e-01 9.125389999999999890e-01 1.769757999999999942e+00 6.635210000000000274e-01 -1.407639000000000085e+00 1.136405000000000109e+00 1.507989999999999886e-01 4.458980000000000166e-01 3.993229999999999835e-01 1.504699999999999926e-01 1.295293999999999945e+00 1.996080000000000076e-01 8.457010000000000360e-01 9.283390000000000253e-01 2.847805000000000142e+00 1.388325000000000031e+00 -2.596109999999999807e-01 -4.255899999999999961e-02 -2.608312999999999882e+00 3.721749999999999781e-01 -3.172769999999999757e-01 1.599445999999999923e+00 -7.599829999999999641e-01 -2.674759999999999915e-01 4.036520000000000108e-01 1.032356999999999969e+00 -1.300910000000000011e+00 3.840589999999999837e-01 1.625291999999999959e+00 6.214229999999999476e-01 -1.953616999999999937e+00 4.640630000000000033e-01
-4.460939999999999905e-01 2.891500000000000181e-01 -1.650306999999999968e+00 6.996839999999999726e-01 -1.029868000000000006e+00 6.300940000000000429e-01 -1.237832999999999961e+00 -1.157534999999999981e+00 -2.727774000000000143e+00 -2.305270000000000097e-01 1.051944999999999908e+00 -1.466349999999999876e-01 -7.036310000000000064e-01 -5.033499999999999641e-01 -4.239589999999999748e-01 -8.696490000000000054e-01 3.022299999999999986e-02 3.481090000000000018e-01 2.544929999999999914e+00 6.139710000000000445e-01 2.657430000000000070e-01 1.091680000000000011e-01 -2.724800000000000000e-01 4.042017000000000415e+00 5.038479999999999626e-01 1.376781000000000033e+00 9.889090000000000380e-01 -1.565499999999999878e-02 -6.672829999999999595e-01 -3.786129999999999773e-01 1.395500000000000039e-02 -1.497355999999999909e+00 5.745139999999999691e-01 -6.912160000000000526e-01 1.550890000000000046e-01 -6.517690000000000428e-01 -2.286600000000000091e-02 -1.209569999999999951e-01 -6.890709999999999891e-01 -6.811899999999999900e-02 1.909619999999999929e-01 3.278363999999999834e+00 -4.140940000000000176e-01 -1.016839999999999966e-01 3.389099999999999752e-02 1.412439000000000000e+00 -2.421803999999999846e+00 -2.696919999999999873e-01 8.631680000000000463e-01 5.057180000000000009e-01 3.014970000000000150e-01 1.019948000000000077e+00 1.412366000000000010e+00 -2.303699999999999845e-02 -9.526890000000000081e-01 7.232159999999999700e-01 7.349919999999999787e-01 -3.087099999999999844e-01 -1.280224999999999946e+00 4.453790000000000249e-01 -7.260999999999999399e-02 6.155500000000000416e-01 5.857149999999999856e-01 -1.089055000000000106e+00 3.127787999999999791e+00 1.893769999999999953e+00 1.046192999999999929e+00 -1.321838999999999986e+00 -4.137370000000000214e-01 1.482600000000000064e-02 -7.704910000000000370e-01 -1.821210999999999913e+00 -1.388303000000000065e+00 -1.492482000000000086e+00 -9.677800000000000291e-02 -1.206703000000000081e+00 -9.664699999999999680e-02 1.469375000000000098e+00 -1.350818000000000074e+00 8.746019999999999905e-01 -1.269597000000000087e+00 -5.703699999999999742e-02 -1.117812000000000028e+00 -2.684649999999999981e+00 1.721562999999999954e+00 -7.293429999999999636e-01 -1.447087000000000012e+00 -6.519129999999999647e-01 1.421219999999999928e+00 1.469300000000000050e+00 1.827803999999999984e+00 2.192575999999999858e+00 -2.367754000000000136e+00
7.628110000000000168e-01 5.108179999999999943e-01 -9.837700000000000611e-02 1.367939000000000016e+00 3.536670000000000091e-01 -1.644746000000000041e+00 1.046483999999999970e+00 -3.893170000000000242e-01 2.675910000000000233e-01 -5.286889999999999645e-01 -3.170009999999999772e-01 2.053389999999999938e-01 1.337412000000000045e+00 -1.550923999999999969e+00 -3.279739999999999878e-01 1.517370000000000108e+00 2.108121000000000134e+00 -1.945689999999999920e-01 -3.357099999999999668e-02 7.552339999999999609e-01 -1.501119999999999954e-01 -9.969500000000000584e-02 9.233329999999999593e-01 -1.436167999999999889e+00 -8.104109999999999925e-01 4.564179999999999904e-01 9.974939999999999918e-01 -9.706650000000000000e-01 1.051409999999999983e-01 1.262650000000000050e+00 -1.827782999999999936e+00 -2.250223999999999780e+00 -1.562621000000000038e+00 -1.825747000000000009e+00 1.176063999999999998e+00 8.280370000000000230e-01 -3.586759999999999948e-01 1.153038999999999925e+00 7.928199999999999692e-01 1.476712999999999942e+00 -3.186500000000000110e+00 -3.487623999999999835e+00 2.848468000000000000e+00 -7.221530000000000449e-01 1.153519999999999962e-01 2.302289999999999892e-01 -6.167660000000000364e-01 2.427617999999999832e+00 1.513822999999999919e+00 3.894355000000000011e+00 -9.403770000000000184e-01 -2.502521999999999913e+00 -3.397692000000000156e+00 -3.553709999999999924e-01 -2.362493999999999872e+00 -2.239729000000000081e+00 2.660283000000000175e+00 -3.086389999999999967e-01 3.769279999999999853e-01 -2.402600000000000013e-01 -2.437370000000000037e+00 1.087199000000000026e+00 1.941640000000000033e-01 2.091525999999999996e+00 -1.688811999999999980e+00 -1.621229999999999893e-01 -6.686689999999999579e-01 1.485552999999999901e+00 7.511090000000000266e-01 1.731157000000000057e+00 5.629175000000000040e+00 2.326179999999999914e-01 -2.759647999999999879e+00 1.420949999999999991e-01 1.754366000000000092e+00 -2.433899999999999952e-02 -1.522121000000000057e+00 -3.638009999999999855e-01 1.661648999999999932e+00 -1.200661999999999896e+00 -7.314549999999999663e-01 -3.383840000000000181e-01 1.506561000000000039e+00 1.656471000000000027e+00 -2.824990000000000001e-01 -2.499747999999999859e+00 6.390149999999999997e-01 7.940199999999999481e-01 -1.175492999999999899e+00 -2.126573000000000047e+00 -2.398000000000000131e-01 1.093439000000000050e+00 -9.627750000000000474e-01