8.696389147999999736e+00 0.000000000000000000e+00 0.000000000000000000e+00 4.317185765999999703e+00 7.467524135999999757e+00 0.000000000000000000e+00 4.396495977999999916e+00 2.399315640000000194e+00 7.089369078999999907e+00
8.730842174999999372e+00 0.000000000000000000e+00 0.000000000000000000e+00 4.364326278000000059e+00 7.585951844000000222e+00 0.000000000000000000e+00 4.367716178000000227e+00 2.525754881000000118e+00 7.129380575999999969e+00
8.729713012999999577e+00 0.000000000000000000e+00 0.000000000000000000e+00 4.153692480000000131e+00 7.633775152000000119e+00 0.000000000000000000e+00 4.656707375999999954e+00 2.572279662000000133e+00 7.083911344999999748e+00
8.849658161000000689e+00 0.000000000000000000e+00 0.000000000000000000e+00 4.362076530999999591e+00 7.668160830999999789e+00 0.000000000000000000e+00 4.492415034999999612e+00 2.570951614000000163e+00 7.192809631000000259e+00
8.785850472999999994e+00 0.000000000000000000e+00 0.000000000000000000e+00 4.347350772999999613e+00 7.516235238000000152e+00 0.000000000000000000e+00 4.430282616000000395e+00 2.500668130999999850e+00 7.146288688000000278e+00
8.709087329999999127e+00 0.000000000000000000e+00 0.000000000000000000e+00 4.295466259000000342e+00 7.547285704000000095e+00 0.000000000000000000e+00 4.349076611000000092e+00 2.440075094000000000e+00 7.101972065000000001e+00
8.643915827000000718e+00 0.000000000000000000e+00 0.000000000000000000e+00 4.345444642000000357e+00 7.489111509999999861e+00 0.000000000000000000e+00 4.316909938000000224e+00 2.468204399999999854e+00 7.042722193000000352e+00
8.602857567999999233e+00 0.000000000000000000e+00 0.000000000000000000e+00 4.300840387000000042e+00 7.459452673000000367e+00 0.000000000000000000e+00 4.295910398000000185e+00 2.467556652999999933e+00 7.025512811999999663e+00
8.847363744000000807e+00 0.000000000000000000e+00 0.000000000000000000e+00 4.374706942999999626e+00 7.672521237999999855e+00 0.000000000000000000e+00 4.460661507000000192e+00 2.590023183000000007e+00 7.142092136999999674e+00
8.636970957000000837e+00 0.000000000000000000e+00 0.000000000000000000e+00 4.287038628000000351e+00 7.528756699999999746e+00 0.000000000000000000e+00 4.354753514000000436e+00 2.515389191000000135e+00 7.055634959999999900e+00
8.882650132000000198e+00 0.000000000000000000e+00 0.000000000000000000e+00 4.417370692000000432e+00 7.737861653000000395e+00 0.000000000000000000e+00 4.480955693000000295e+00 2.553222896999999936e+00 7.231779483000000397e+00
8.650363793000000356e+00 0.000000000000000000e+00 0.000000000000000000e+00 4.315440008000000383e+00 7.519201931999999644e+00 0.000000000000000000e+00 4.345026095999999782e+00 2.512359280000000084e+00 7.076720825999999853e+00
8.584847642999999806e+00 0.000000000000000000e+00 0.000000000000000000e+00 4.257132635999999692e+00 7.407145644999999945e+00 0.000000000000000000e+00 4.312817653999999834e+00 2.473212041000000028e+00 7.042161175000000384e+00
8.761961597000000879e+00 0.000000000000000000e+00 0.000000000000000000e+00 4.455697111000000099e+00 7.548065786999999638e+00 0.000000000000000000e+00 4.293756387000000174e+00 2.490520826000000021e+00 7.126852067999999818e+00
8.687452179999999302e+00 0.000000000000000000e+00 0.000000000000000000e+00 4.261357687000000283e+00 7.725614240999999716e+00 0.000000000000000000e+00 4.305207271999999641e+00 2.702720604000000026e+00 7.289163051000000060e+00
8.685221315999999803e+00 0.000000000000000000e+00 0.000000000000000000e+00 4.379706975999999585e+00 7.540159780999999839e+00 0.000000000000000000e+00 4.379686208999999941e+00 2.491808487000000127e+00 7.102169995999999763e+00
8.829285761999999593e+00 0.000000000000000000e+00 0.000000000000000000e+00 4.402573370999999902e+00 7.734532311999999799e+00 0.000000000000000000e+00 4.390508044999999804e+00 2.729925746000000153e+00 7.222323119000000347e+00
8.682062758000000713e+00 0.000000000000000000e+00 0.000000000000000000e+00 4.315015318000000377e+00 7.554772647000000063e+00 0.000000000000000000e+00 4.380839843999999594e+00 2.561890258000000031e+00 7.124987434000000341e+00
8.666259907000000595e+00 0.000000000000000000e+00 0.000000000000000000e+00 4.309757463000000399e+00 7.504342851999999731e+00 0.000000000000000000e+00 4.372798701999999871e+00 2.515996574999999957e+00 7.078229274999999987e+00
8.715535959000000332e+00 0.000000000000000000e+00 0.000000000000000000e+00 4.412403174999999678e+00 7.510767297000000120e+00 0.000000000000000000e+00 4.327465927000000434e+00 2.493972969000000095e+00 7.111529791999999794e+00
8.656114996999999534e+00 0.000000000000000000e+00 0.000000000000000000e+00 4.239335761000000424e+00 7.736196510000000082e+00 0.000000000000000000e+00 4.309475425999999665e+00 2.645779350000000196e+00 7.283406637999999766e+00
8.514143000000000683e+00 0.000000000000000000e+00 0.000000000000000000e+00 4.257070999999999827e+00 7.373464000000000240e+00 0.000000000000000000e+00 4.257070999999999827e+00 2.457821000000000033e+00 6.951768000000000391e+00
8.625857322999999965e+00 0.000000000000000000e+00 0.000000000000000000e+00 4.258030422000000037e+00 7.570102813000000097e+00 0.000000000000000000e+00 4.282605953000000021e+00 2.511002219999999951e+00 7.071023382999999995e+00
8.716896731000000287e+00 0.000000000000000000e+00 0.000000000000000000e+00 4.237428418999999558e+00 7.478519424999999998e+00 0.000000000000000000e+00 4.434943045999999889e+00 2.503783159999999786e+00 7.110197625999999715e+00
8.767880324000000059e+00 0.000000000000000000e+00 0.000000000000000000e+00 4.340028851999999659e+00 7.595061658999999743e+00 0.000000000000000000e+00 4.471581911000000353e+00 2.571706132000000089e+00 7.176609192999999998e+00
8.737718479999999843e+00 0.000000000000000000e+00 0.000000000000000000e+00 4.369826617000000191e+00 7.566105048999999916e+00 0.000000000000000000e+00 4.355094655000000259e+00 2.543091051000000213e+00 7.137195915000000390e+00
8.653456503999999327e+00 0.000000000000000000e+00 0.000000000000000000e+00 4.294063749000000207e+00 7.480966923000000435e+00 0.000000000000000000e+00 4.384322425999999773e+00 2.445652229999999872e+00 7.107902276999999991e+00
8.742967396999999252e+00 0.000000000000000000e+00 0.000000000000000000e+00 4.360082432999999646e+00 7.584912490999999868e+00 0.000000000000000000e+00 4.387740231000000435e+00 2.532377734999999852e+00 7.145139257000000299e+00
8.920006495000000868e+00 0.000000000000000000e+00 0.000000000000000000e+00 4.468037913999999944e+00 7.761590691000000319e+00 0.000000000000000000e+00 4.457242553000000385e+00 2.588517922999999943e+00 7.282802309000000029e+00
8.612709396999999711e+00 0.000000000000000000e+00 0.000000000000000000e+00 4.321894286000000029e+00 7.485805985999999912e+00 0.000000000000000000e+00 4.313385397000000232e+00 2.486438033999999853e+00 7.038780584999999590e+00
8.873450147999999871e+00 0.000000000000000000e+00 0.000000000000000000e+00 4.391094198000000226e+00 7.707425445000000153e+00 0.000000000000000000e+00 4.508686843999999638e+00 2.597799135999999898e+00 7.269485848999999611e+00
8.663431189000000643e+00 0.000000000000000000e+00 0.000000000000000000e+00 4.326734629999999804e+00 7.501052130999999790e+00 0.000000000000000000e+00 4.334038190000000235e+00 2.513230988000000110e+00 7.080128283999999717e+00
8.644415537000000427e+00 0.000000000000000000e+00 0.000000000000000000e+00 4.275019794000000317e+00 7.441667177000000244e+00 0.000000000000000000e+00 4.359597062999999828e+00 2.410639816999999852e+00 7.072567915999999677e+00
8.676913609999999721e+00 0.000000000000000000e+00 0.000000000000000000e+00 4.385257208999999712e+00 7.488407318000000146e+00 0.000000000000000000e+00 4.284096904000000094e+00 2.465283171999999912e+00 7.100222016000000025e+00
8.666620211999999768e+00 0.000000000000000000e+00 0.000000000000000000e+00 4.349587441999999804e+00 7.525095871000000436e+00 0.000000000000000000e+00 4.292828842999999672e+00 2.476595972999999784e+00 7.055428820000000378e+00
8.669709585999999746e+00 0.000000000000000000e+00 0.000000000000000000e+00 4.267012526000000250e+00 7.540620166000000069e+00 0.000000000000000000e+00 4.313132490000000097e+00 2.451345182999999928e+00 7.058988044000000350e+00
8.660260508000000357e+00 0.000000000000000000e+00 0.000000000000000000e+00 4.351859466999999704e+00 7.499709128000000113e+00 0.000000000000000000e+00 4.309402363000000236e+00 2.493795984000000132e+00 7.060830828000000281e+00
9.145670985000000641e+00 0.000000000000000000e+00 0.000000000000000000e+00 4.421805675999999963e+00 7.435832279999999628e+00 0.000000000000000000e+00 4.669323846000000167e+00 2.204527521000000156e+00 7.176040178000000047e+00
8.556594536000000417e+00 0.000000000000000000e+00 0.000000000000000000e+00 4.294214998000000172e+00 7.517637726000000242e+00 0.000000000000000000e+00 4.299635477999999900e+00 2.570525284999999993e+00 7.003872645000000396e+00
8.743399967000000217e+00 0.000000000000000000e+00 0.000000000000000000e+00 4.334001115000000404e+00 7.644491054999999591e+00 0.000000000000000000e+00 4.401624712000000272e+00 2.561087545999999993e+00 7.154724492999999796e+00
8.751037366000000262e+00 0.000000000000000000e+00 0.000000000000000000e+00 4.349469885999999619e+00 7.645857190000000081e+00 0.000000000000000000e+00 4.400991037999999911e+00 2.554017942999999846e+00 7.163136256999999674e+00
8.725476394999999386e+00 0.000000000000000000e+00 0.000000000000000000e+00 4.366873052999999949e+00 7.689897803000000032e+00 0.000000000000000000e+00 4.348380882999999919e+00 2.672663753999999781e+00 7.180578474999999905e+00
8.701311813000000228e+00 0.000000000000000000e+00 0.000000000000000000e+00 4.311322811000000144e+00 7.550313345000000176e+00 0.000000000000000000e+00 4.371792042000000045e+00 2.542619109999999960e+00 7.102081806000000164e+00
8.732229815000000173e+00 0.000000000000000000e+00 0.000000000000000000e+00 4.451806284999999974e+00 7.510130047999999725e+00 0.000000000000000000e+00 4.390119604999999758e+00 2.503122235000000195e+00 7.131489691999999714e+00
8.641080970999999167e+00 0.000000000000000000e+00 0.000000000000000000e+00 4.243456829000000319e+00 7.683756681000000199e+00 0.000000000000000000e+00 4.354139218000000255e+00 2.572921108000000068e+00 7.178809343000000176e+00
8.514143000000000683e+00 0.000000000000000000e+00 0.000000000000000000e+00 4.257070999999999827e+00 7.373464000000000240e+00 0.000000000000000000e+00 4.257070999999999827e+00 2.457821000000000033e+00 6.951768000000000391e+00
8.931677109000000669e+00 0.000000000000000000e+00 0.000000000000000000e+00 4.415813818000000168e+00 7.708841125000000183e+00 0.000000000000000000e+00 4.498052806999999653e+00 2.533450692999999809e+00 7.277173744999999805e+00
8.514143000000000683e+00 0.000000000000000000e+00 0.000000000000000000e+00 4.257070999999999827e+00 7.373464000000000240e+00 0.000000000000000000e+00 4.257070999999999827e+00 2.457821000000000033e+00 6.951768000000000391e+00
8.644937820000000883e+00 0.000000000000000000e+00 0.000000000000000000e+00 4.303858627000000325e+00 7.371064666999999737e+00 0.000000000000000000e+00 4.309866260999999810e+00 2.347626466999999995e+00 7.011633759999999604e+00
8.629454412999999491e+00 0.000000000000000000e+00 0.000000000000000000e+00 4.339826200000000078e+00 7.444383232999999933e+00 0.000000000000000000e+00 4.319028422999999783e+00 2.474641833999999818e+00 7.035884006999999940e+00
