8.759729999999999350e+00 9.708339999999999748e+00 7.064689999999999692e+00 1.009703999999999979e+01 8.650900000000000256e-01 2.349969999999999892e+00 7.287329999999999863e+00 9.017680000000000362e+00 4.747209999999999930e+00 5.885530000000000150e+00 4.849479999999999791e+00 6.958610000000000184e+00 1.155372000000000021e+01 3.292629999999999946e+00 2.444550000000000001e+00 1.304031999999999947e+01 4.119229999999999947e+00 4.773109999999999964e+00 1.155208000000000013e+01 5.001559999999999562e+00 8.949999999999999623e-03 1.293032000000000004e+01 5.790000000000000036e+00 2.344819999999999904e+00 5.768340000000000245e+00 6.477439999999999642e+00 4.622650000000000148e+00 1.164756000000000036e+01 9.837289999999999424e+00 7.059149999999999814e+00 8.643280000000000740e+00 8.275779999999999248e+00 2.392679999999999918e+00 1.020551999999999992e+01 9.023569999999999425e+00 4.728860000000000063e+00 4.319549999999999557e+00 2.451649999999999885e+00 1.412799999999999889e-01 5.683010000000000339e+00 3.282859999999999889e+00 2.270840000000000192e+00 7.295379999999999754e+00 3.942460000000000075e+00 4.580560000000000187e+00 1.032302999999999926e+01 7.340530000000000221e+00 7.015189999999999593e+00 7.136519999999999975e+00 5.900999999999999801e+00 2.395599999999999952e+00 8.586740000000000705e+00 6.644370000000000331e+00 4.647160000000000402e+00 5.776539999999999786e+00 4.839999999999999684e-03 1.379999999999999977e-02 7.306540000000000035e+00 8.432500000000000551e-01 2.290950000000000042e+00 8.773239999999999483e+00 1.610020000000000007e+00 4.754430000000000156e+00 1.166722000000000037e+01 4.984490000000000087e+00 7.057699999999999640e+00 8.623920000000000030e+00 3.390750000000000153e+00 2.257509999999999906e+00 1.005165000000000042e+01 4.020769999999999733e+00 4.772689999999999877e+00 1.318462000000000067e+01 7.446250000000000036e+00 7.079729999999999634e+00 1.011561999999999983e+01 5.876509999999999678e+00 2.425149999999999917e+00 1.169932000000000016e+01 6.652800000000000047e+00 4.726910000000000167e+00 2.955540000000000056e+00 1.644609999999999905e+00 1.336270000000000069e+00 4.382310000000000372e+00 2.463060000000000027e+00 3.512999999999999901e+00 5.820030000000000037e+00 2.966689999999999827e+00 6.005060000000000286e+00 4.295429999999999637e+00 4.158640000000000114e+00 1.175589999999999913e+00 5.704419999999999824e+00 5.050399999999999778e+00 3.266900000000000137e+00 7.552679999999999616e+00 5.788479999999999848e+00 6.001870000000000260e+00 5.824049999999999727e+00 6.555229999999999890e+00 1.121170000000000000e+00 7.200969999999999871e+00 7.372969999999999580e+00 3.477660000000000196e+00 8.694979999999999265e+00 8.198890000000000455e+00 5.980859999999999843e+00 5.773920000000000385e+00 1.627329999999999943e+00 1.217440000000000078e+00 7.323830000000000062e+00 2.410719999999999974e+00 3.532939999999999969e+00 8.790340000000000487e+00 3.113109999999999822e+00 6.018939999999999735e+00 7.245420000000000194e+00 4.200129999999999697e+00 1.057819999999999983e+00 8.847060000000000812e+00 4.928320000000000256e+00 3.565209999999999990e+00 1.027852000000000032e+01 5.672030000000000349e+00 5.978489999999999860e+00 8.677880000000000038e+00 6.651860000000000106e+00 1.249519999999999964e+00 1.014602000000000004e+01 7.387929999999999886e+00 3.626020000000000021e+00 1.173141999999999996e+01 8.248300000000000409e+00 5.891210000000000058e+00 8.665449999999999875e+00 1.743549999999999933e+00 1.230949999999999989e+00 1.015722000000000058e+01 2.278189999999999937e+00 3.609989999999999810e+00 1.142792000000000030e+01 3.194749999999999979e+00 5.946799999999999642e+00 1.008466999999999913e+01 4.058259999999999756e+00 1.247090000000000032e+00 1.149892000000000003e+01 4.802500000000000213e+00 3.514269999999999783e+00 1.297362000000000037e+01 5.969039999999999679e+00 5.855620000000000047e+00 1.146612000000000009e+01 6.712480000000000224e+00 1.232019999999999893e+00 1.303372000000000064e+01 7.364989999999999704e+00 3.386789999999999967e+00 1.459082000000000079e+01 8.189199999999999591e+00 5.999080000000000190e+00 5.839159999999999684e+00 4.759129999999999860e+00 5.208730000000000082e+00
4.343009999999999593e+00 7.476399999999999935e+00 4.519000000000000100e-02 1.443000999999999934e+01 8.344649999999999679e+00 2.371529999999999916e+00 1.591046000000000049e+01 9.185600000000000875e+00 4.823570000000000135e+00 9.956580000000000652e+00 2.316780000000000062e+00 8.934000000000000274e-02 1.155026999999999937e+01 3.375039999999999818e+00 2.437359999999999971e+00 1.299305000000000021e+01 4.109130000000000393e+00 4.785540000000000127e+00 1.595626999999999995e+01 7.554210000000000313e+00 7.105959999999999610e+00 4.317899999999999849e+00 5.689540000000000042e+00 2.406839999999999868e+00 1.456409000000000020e+01 6.827309999999999768e+00 4.770010000000000083e+00 7.443130000000000024e+00 7.522689999999999877e+00 9.965000000000000246e-02 4.328859999999999708e+00 8.971599999999999575e-01 2.352759999999999962e+00 1.017239000000000004e+01 9.180229999999999890e+00 4.711190000000000211e+00 8.695140000000000313e+00 5.043730000000000047e+00 7.058110000000000106e+00 5.813250000000000028e+00 3.300549999999999873e+00 2.311659999999999826e+00 7.290630000000000166e+00 4.044120000000000381e+00 4.754900000000000126e+00 5.950129999999999697e+00 5.094850000000000101e+00 9.363000000000000489e-02 7.294839999999999769e+00 5.857859999999999623e+00 2.433840000000000003e+00 8.694470000000000809e+00 6.809960000000000235e+00 4.642999999999999794e+00 1.456997999999999927e+01 1.007601000000000013e+01 7.091779999999999973e+00 1.165809999999999924e+01 8.401300000000000878e+00 2.347640000000000171e+00 8.816919999999999646e+00 1.693449999999999900e+00 4.685550000000000104e+00 7.179929999999999701e+00 2.603610000000000202e+00 3.164999999999999758e-02 8.653489999999999682e+00 3.456319999999999837e+00 2.510089999999999932e+00 1.020274999999999999e+01 4.254439999999999777e+00 4.784760000000000346e+00 8.757329999999999615e+00 4.961009999999999920e+00 6.130000000000000032e-03 1.019805000000000028e+01 5.877340000000000231e+00 2.222080000000000055e+00 1.159224999999999994e+01 6.790339999999999598e+00 4.699790000000000134e+00 2.797870000000000079e+00 1.551909999999999901e+00 1.266450000000000076e+00 4.361600000000000144e+00 2.494889999999999830e+00 3.540230000000000210e+00 6.046330000000000204e+00 3.285919999999999952e+00 6.151950000000000252e+00 4.282949999999999591e+00 4.090639999999999610e+00 1.289779999999999927e+00 5.898060000000000080e+00 5.037219999999999587e+00 3.350950000000000095e+00 7.665309999999999846e+00 6.181869999999999976e+00 6.065140000000000420e+00 5.837519999999999598e+00 6.617399999999999949e+00 1.274469999999999992e+00 7.242490000000000094e+00 7.544590000000000352e+00 3.588340000000000085e+00 8.721920000000000783e+00 8.548799999999999955e+00 6.037880000000000358e+00 5.860059999999999825e+00 1.802519999999999900e+00 1.146439999999999904e+00 7.402420000000000222e+00 2.467229999999999812e+00 3.632379999999999942e+00 8.857609999999999317e+00 3.392329999999999846e+00 5.953689999999999927e+00 7.326929999999999943e+00 4.141670000000000407e+00 1.140390000000000015e+00 8.797200000000000131e+00 5.066230000000000011e+00 3.519579999999999931e+00 1.023114999999999952e+01 5.842050000000000409e+00 5.832939999999999792e+00 8.827120000000000744e+00 6.845799999999999663e+00 1.137219999999999898e+00 1.011425000000000018e+01 7.697919999999999874e+00 3.499039999999999928e+00 1.161144999999999960e+01 8.307249999999999801e+00 5.819329999999999892e+00 8.660170000000000812e+00 1.608449999999999935e+00 1.298589999999999911e+00 1.022145000000000081e+01 2.552020000000000177e+00 3.528900000000000148e+00 1.159544999999999959e+01 3.376900000000000013e+00 5.954740000000000144e+00 1.004608999999999952e+01 4.177570000000000228e+00 1.164900000000000047e+00 1.160975000000000001e+01 5.128519999999999968e+00 3.545510000000000161e+00 1.298874999999999957e+01 5.953839999999999577e+00 6.029309999999999725e+00 1.163274999999999970e+01 6.777689999999999770e+00 1.114740000000000064e+00 1.302655000000000030e+01 7.602699999999999569e+00 3.451400000000000023e+00 1.447104999999999997e+01 8.441649999999999210e+00 5.900859999999999772e+00 5.756289999999999907e+00 4.964909999999999712e+00 5.303799999999999848e+00
8.782460000000000377e+00 1.013119000000000014e+01 6.932240000000000180e+00 1.024329000000000001e+01 9.479199999999999848e-01 2.409479999999999844e+00 7.343350000000000044e+00 9.267239999999999256e+00 4.655319999999999681e+00 1.818419999999999925e+00 2.392599999999999838e+00 2.253300000000000025e-01 3.052669999999999995e+00 3.315069999999999961e+00 2.258199999999999985e+00 1.321620000000000061e+01 4.353589999999999627e+00 4.665339999999999598e+00 7.411179999999999879e+00 7.603530000000000122e+00 7.018670000000000186e+00 1.304318999999999917e+01 6.045899999999999608e+00 2.427589999999999915e+00 1.440188999999999986e+01 6.927319999999999922e+00 4.889070000000000249e+00 7.043840000000000323e+00 7.444740000000000357e+00 2.197999999999999954e-02 4.671079999999999899e+00 8.916199999999999681e-01 2.350950000000000095e+00 1.030475999999999992e+01 9.315720000000000667e+00 4.773419999999999774e+00 4.323570000000000135e+00 2.523000000000000131e+00 3.635000000000000037e-02 5.907809999999999562e+00 3.339500000000000135e+00 2.297590000000000021e+00 7.307290000000000063e+00 4.506789999999999630e+00 4.747659999999999769e+00 1.028429000000000038e+01 7.510239999999999583e+00 7.009890000000000398e+00 7.188950000000000173e+00 5.763799999999999812e+00 2.330259999999999998e+00 8.843009999999999593e+00 6.713280000000000136e+00 4.684529999999999639e+00 1.058375999999999983e+01 2.654570000000000096e+00 7.035739999999999661e+00 1.166989000000000054e+01 8.506009999999999849e+00 2.414820000000000189e+00 1.297058999999999962e+01 9.336100000000000065e+00 4.779230000000000089e+00 1.203401000000000032e+01 5.031859999999999999e+00 7.056860000000000355e+00 8.668020000000000280e+00 3.390429999999999833e+00 2.467179999999999929e+00 1.031678999999999924e+01 4.333859999999999602e+00 4.868470000000000297e+00 8.553459999999999397e+00 5.004579999999999806e+00 1.026299999999999990e-01 1.019558999999999926e+01 5.962539999999999729e+00 2.373159999999999936e+00 1.151798999999999928e+01 6.873129999999999740e+00 4.730889999999999596e+00 3.035179999999999989e+00 1.657089999999999952e+00 1.378549999999999942e+00 4.545180000000000220e+00 2.574549999999999894e+00 3.530549999999999855e+00 6.176470000000000127e+00 3.022889999999999855e+00 6.064140000000000086e+00 4.179870000000000196e+00 4.353279999999999816e+00 9.458100000000000396e-01 5.534180000000000099e+00 5.059689999999999799e+00 3.279869999999999841e+00 7.702460000000000306e+00 5.875549999999999606e+00 6.135519999999999641e+00 5.781189999999999607e+00 6.798370000000000246e+00 1.307309999999999972e+00 7.355150000000000077e+00 7.650159999999999627e+00 3.637539999999999996e+00 8.964040000000000674e+00 8.519289999999999807e+00 5.836789999999999701e+00 6.032770000000000188e+00 1.777169999999999916e+00 1.056489999999999929e+00 7.317440000000000389e+00 2.370049999999999990e+00 3.514460000000000139e+00 8.962199999999999278e+00 3.324510000000000076e+00 5.912420000000000009e+00 7.161360000000000170e+00 4.155540000000000234e+00 1.203549999999999898e+00 8.625719999999999388e+00 5.136940000000000062e+00 3.445460000000000189e+00 1.020918999999999954e+01 5.950129999999999697e+00 5.932459999999999845e+00 8.595679999999999765e+00 6.777090000000000281e+00 1.261830000000000007e+00 1.023529000000000089e+01 7.618999999999999773e+00 3.466590000000000060e+00 1.179189000000000043e+01 8.356009999999999494e+00 6.055450000000000443e+00 8.736620000000000275e+00 1.657939999999999969e+00 1.184369999999999923e+00 1.013748999999999967e+01 2.671050000000000146e+00 3.451709999999999834e+00 1.176238999999999990e+01 3.527429999999999843e+00 5.836179999999999701e+00 9.965790000000000148e+00 4.201469999999999594e+00 1.109930000000000083e+00 1.156489000000000011e+01 5.050930000000000142e+00 3.448249999999999815e+00 1.281239000000000061e+01 6.131319999999999659e+00 5.934110000000000440e+00 1.143328999999999951e+01 6.808699999999999974e+00 1.024799999999999933e+00 1.311908999999999992e+01 7.669629999999999725e+00 3.404809999999999892e+00 1.473668999999999940e+01 8.460889999999999134e+00 5.810240000000000293e+00 5.921940000000000204e+00 5.405280000000000307e+00 5.582869999999999777e+00
4.632670000000000066e+00 2.549809999999999910e+00 7.108889999999999709e+00 1.029494000000000042e+01 9.046600000000000197e-01 2.338189999999999991e+00 7.548399999999999999e+00 9.275850000000000151e+00 4.955709999999999837e+00 1.471076000000000050e+01 5.298779999999999824e+00 7.008009999999999629e+00 2.922899999999999832e+00 3.413549999999999862e+00 2.259609999999999896e+00 1.304916000000000054e+01 4.322720000000000340e+00 4.496199999999999974e+00 2.981700000000000017e+00 4.993949999999999889e+00 1.239999999999999991e-01 1.313236000000000026e+01 6.103740000000000165e+00 2.304609999999999825e+00 5.839500000000000135e+00 6.636449999999999960e+00 4.817429999999999879e+00 7.486970000000000347e+00 7.650579999999999714e+00 7.821000000000000174e-02 8.955489999999999284e+00 8.451570000000000249e+00 2.268240000000000034e+00 1.064826000000000050e+01 9.349529999999999674e+00 4.711669999999999803e+00 8.847250000000000725e+00 4.945520000000000138e+00 7.147639999999999993e+00 5.829550000000000232e+00 3.380619999999999958e+00 2.392160000000000064e+00 7.300620000000000331e+00 3.978990000000000027e+00 4.762749999999999595e+00 1.033876000000000062e+01 7.699349999999999916e+00 7.011860000000000426e+00 7.278810000000000002e+00 5.915939999999999976e+00 2.288829999999999920e+00 8.875750000000000028e+00 6.719479999999999897e+00 4.913739999999999775e+00 1.035964000000000063e+01 7.602500000000000036e+00 8.731999999999999484e-02 7.510880000000000223e+00 8.193300000000000027e-01 2.272120000000000140e+00 1.353486000000000011e+01 9.228249999999999176e+00 4.877819999999999823e+00 1.185675999999999952e+01 5.230990000000000251e+00 7.164189999999999614e+00 8.735860000000000625e+00 3.413199999999999790e+00 2.412900000000000045e+00 1.023405999999999949e+01 4.312599999999999767e+00 4.781990000000000407e+00 8.622239999999999682e+00 5.120129999999999626e+00 1.474800000000000000e-01 1.023986000000000018e+01 5.886779999999999902e+00 2.380900000000000016e+00 1.168406000000000056e+01 6.760320000000000107e+00 4.796400000000000219e+00 3.158189999999999831e+00 1.733610000000000095e+00 1.360510000000000108e+00 4.458429999999999893e+00 2.589719999999999800e+00 3.617939999999999934e+00 6.248409999999999798e+00 2.875389999999999890e+00 6.172570000000000334e+00 4.342559999999999754e+00 4.178770000000000095e+00 1.159620000000000095e+00 5.616699999999999804e+00 5.245700000000000252e+00 3.232920000000000016e+00 7.538269999999999804e+00 6.174409999999999954e+00 6.117160000000000153e+00 5.809669999999999668e+00 6.841440000000000410e+00 1.225130000000000052e+00 7.324340000000000295e+00 7.711509999999999643e+00 3.562289999999999957e+00 8.975789999999999935e+00 8.583019999999999428e+00 5.983290000000000219e+00 6.036590000000000344e+00 1.713500000000000023e+00 1.103580000000000005e+00 7.458230000000000359e+00 2.505720000000000169e+00 3.380679999999999907e+00 9.125609999999999999e+00 3.423509999999999831e+00 6.037099999999999689e+00 7.425889999999999880e+00 4.214050000000000296e+00 1.317739999999999911e+00 8.651550000000000296e+00 5.154440000000000133e+00 3.777410000000000156e+00 1.025286000000000008e+01 5.970130000000000159e+00 5.864150000000000418e+00 8.805839999999999890e+00 6.780859999999999665e+00 1.264140000000000041e+00 1.007839000000000063e+01 7.764610000000000234e+00 3.631850000000000023e+00 1.190935999999999950e+01 8.514709999999999113e+00 5.977719999999999700e+00 8.951209999999999667e+00 1.550880000000000036e+00 1.086300000000000043e+00 1.041245999999999938e+01 2.551969999999999850e+00 3.715339999999999865e+00 1.180826000000000064e+01 3.530809999999999782e+00 6.172229999999999883e+00 1.014250999999999969e+01 4.367840000000000167e+00 1.321849999999999969e+00 1.158336000000000077e+01 5.221169999999999867e+00 3.601589999999999847e+00 1.305885999999999925e+01 6.277309999999999945e+00 6.080809999999999604e+00 1.175395999999999930e+01 6.870659999999999989e+00 1.180639999999999912e+00 1.321805999999999948e+01 7.766689999999999650e+00 3.646430000000000060e+00 1.495996000000000059e+01 8.479990000000000805e+00 6.031130000000000102e+00 5.794839999999999769e+00 4.747480000000000366e+00 5.293890000000000207e+00
1.300014999999999965e+01 7.441639999999999588e+00 1.555400000000000116e-01 1.024784999999999968e+01 8.729799999999999782e-01 2.310890000000000111e+00 7.376100000000000101e+00 9.152839999999999421e+00 4.831500000000000128e+00 1.015263999999999989e+01 2.435820000000000096e+00 5.060000000000000261e-03 2.976030000000000175e+00 3.279630000000000045e+00 2.374589999999999979e+00 1.311454999999999949e+01 4.102899999999999991e+00 4.809560000000000279e+00 7.277470000000000105e+00 7.474169999999999980e+00 7.025970000000000049e+00 1.309774999999999956e+01 5.868290000000000006e+00 2.410719999999999974e+00 5.912799999999999834e+00 6.809929999999999595e+00 4.631050000000000111e+00 7.341940000000000133e+00 7.503260000000000041e+00 6.413000000000000644e-02 8.812340000000000728e+00 8.240080000000000737e+00 2.407210000000000072e+00 1.026094999999999935e+01 9.064970000000000638e+00 4.783000000000000362e+00 4.346510000000000318e+00 2.498180000000000067e+00 5.000000000000000240e-05 5.918269999999999698e+00 3.314909999999999801e+00 2.310029999999999806e+00 7.442109999999999559e+00 4.188950000000000173e+00 4.750499999999999723e+00 5.875479999999999592e+00 5.020839999999999748e+00 2.546999999999999958e-02 7.480199999999999960e+00 5.848440000000000083e+00 2.383459999999999912e+00 8.805559999999999832e+00 6.638700000000000045e+00 4.749439999999999884e+00 1.029645000000000010e+01 2.520280000000000076e+00 7.067479999999999762e+00 1.176965000000000039e+01 8.271390000000000242e+00 2.402590000000000003e+00 8.949690000000000367e+00 1.815520000000000023e+00 4.798390000000000377e+00 7.191519999999999690e+00 2.477380000000000138e+00 1.460100000000000009e-01 8.820199999999999818e+00 3.255069999999999908e+00 2.366169999999999884e+00 1.032274999999999920e+01 4.276589999999999669e+00 4.714349999999999596e+00 8.807199999999999918e+00 4.955790000000000362e+00 1.434799999999999964e-01 1.025225000000000009e+01 5.835580000000000211e+00 2.418369999999999909e+00 1.185094999999999921e+01 6.744259999999999700e+00 4.802310000000000301e+00 2.863010000000000055e+00 1.656519999999999992e+00 1.160940000000000083e+00 4.337080000000000268e+00 2.425440000000000040e+00 3.561399999999999899e+00 5.832279999999999909e+00 2.909149999999999903e+00 6.191019999999999968e+00 4.374520000000000408e+00 4.082150000000000389e+00 1.209899999999999975e+00 5.825109999999999566e+00 5.054730000000000167e+00 2.962779999999999969e+00 7.736869999999999692e+00 6.008130000000000415e+00 6.105680000000000440e+00 5.739399999999999835e+00 6.684639999999999915e+00 1.243570000000000064e+00 7.243940000000000268e+00 7.553630000000000067e+00 3.531909999999999883e+00 8.815419999999999590e+00 8.311650000000000205e+00 5.942689999999999806e+00 5.853030000000000399e+00 1.518189999999999928e+00 1.203470000000000040e+00 7.404899999999999594e+00 2.546110000000000095e+00 3.643899999999999917e+00 8.922530000000000072e+00 3.313889999999999780e+00 5.897009999999999863e+00 7.352339999999999876e+00 4.099920000000000009e+00 1.295630000000000059e+00 8.767129999999999868e+00 4.946250000000000036e+00 3.545850000000000168e+00 1.021165000000000056e+01 5.776640000000000441e+00 5.945719999999999672e+00 8.806580000000000297e+00 6.719350000000000378e+00 1.161340000000000039e+00 1.025075000000000003e+01 7.447820000000000107e+00 3.465250000000000163e+00 1.154485000000000028e+01 8.339109999999999800e+00 5.993389999999999773e+00 8.731680000000000774e+00 1.596000000000000085e+00 1.279079999999999995e+00 1.022354999999999947e+01 2.648540000000000116e+00 3.494400000000000173e+00 1.178064999999999962e+01 3.291589999999999794e+00 5.926269999999999705e+00 1.030315000000000047e+01 4.163009999999999877e+00 1.116540000000000088e+00 1.172644999999999982e+01 5.091199999999999726e+00 3.590300000000000047e+00 1.275375000000000014e+01 5.943069999999999631e+00 6.259859999999999758e+00 1.161524999999999963e+01 6.564659999999999940e+00 1.178909999999999902e+00 1.318975000000000009e+01 7.694259999999999877e+00 3.706199999999999939e+00 1.452865000000000073e+01 8.343120000000000758e+00 5.867230000000000167e+00 5.857949999999999768e+00 5.138729999999999798e+00 5.217929999999999957e+00
8.430999999999999606e-02 2.157999999999999849e-02 2.577000000000000124e-02 5.897380000000000067e+00 8.299709999999999255e+00 2.370429999999999815e+00 7.248709999999999987e+00 9.098010000000000375e+00 4.765600000000000058e+00 9.983499999999999375e+00 2.447869999999999990e+00 4.870000000000000023e-02 2.903579999999999828e+00 3.326659999999999950e+00 2.370280000000000165e+00 4.380329999999999835e+00 4.071530000000000094e+00 4.846829999999999750e+00 1.165700000000000003e+01 5.158159999999999634e+00 4.866999999999999799e-02 4.382060000000000066e+00 5.863929999999999865e+00 2.251710000000000100e+00 5.790320000000000356e+00 6.492609999999999992e+00 4.683709999999999596e+00 1.153008999999999951e+01 9.946400000000000574e+00 7.077689999999999593e+00 8.663019999999999499e+00 8.278230000000000643e+00 2.285779999999999923e+00 5.759900000000000020e+00 1.627709999999999990e+00 4.700090000000000323e+00 8.752950000000000230e+00 4.944560000000000066e+00 7.077790000000000248e+00 5.759409999999999918e+00 3.273859999999999992e+00 2.425769999999999982e+00 7.174009999999999998e+00 4.092200000000000060e+00 4.793969999999999843e+00 1.024829000000000079e+01 7.360899999999999999e+00 7.082029999999999603e+00 7.199849999999999639e+00 5.745040000000000369e+00 2.211869999999999781e+00 8.720370000000000843e+00 6.581789999999999807e+00 4.637360000000000149e+00 1.015587000000000018e+01 7.503739999999999633e+00 3.084999999999999895e-02 7.181300000000000239e+00 8.230600000000000138e-01 2.369800000000000129e+00 8.682010000000000005e+00 1.631180000000000074e+00 4.734720000000000262e+00 7.212100000000000399e+00 2.523740000000000094e+00 1.162600000000000022e-01 8.591730000000000089e+00 3.287999999999999812e+00 2.564900000000000180e+00 1.005565999999999960e+01 4.102129999999999832e+00 4.724470000000000169e+00 1.304064999999999941e+01 7.558489999999999931e+00 6.994740000000000180e+00 1.012486999999999959e+01 5.729829999999999757e+00 2.319939999999999891e+00 1.158916999999999931e+01 6.565310000000000201e+00 4.707329999999999792e+00 2.811799999999999855e+00 1.782499999999999973e+00 1.119050000000000100e+00 4.331809999999999938e+00 2.513339999999999907e+00 3.401909999999999989e+00 5.721849999999999881e+00 3.007760000000000211e+00 6.004920000000000258e+00 4.326920000000000321e+00 4.322070000000000078e+00 1.158309999999999951e+00 5.775100000000000122e+00 5.044109999999999872e+00 3.141669999999999963e+00 7.612630000000000230e+00 5.982109999999999594e+00 6.103119999999999656e+00 5.814409999999999634e+00 6.746879999999999988e+00 1.132079999999999975e+00 7.265159999999999840e+00 7.518410000000000259e+00 3.420040000000000191e+00 8.679779999999999163e+00 8.420469999999999899e+00 5.942029999999999923e+00 5.826200000000000045e+00 1.643270000000000008e+00 1.215039999999999898e+00 7.248750000000000249e+00 2.405440000000000023e+00 3.622949999999999893e+00 8.772710000000000008e+00 3.223850000000000104e+00 5.872799999999999798e+00 7.195829999999999949e+00 4.208409999999999762e+00 1.182609999999999939e+00 8.650150000000000006e+00 4.919780000000000264e+00 3.565020000000000078e+00 1.017446999999999946e+01 5.754839999999999733e+00 5.916850000000000165e+00 8.552799999999999514e+00 6.768410000000000259e+00 1.028310000000000057e+00 1.013336999999999932e+01 7.464550000000000018e+00 3.462959999999999816e+00 1.147277000000000058e+01 8.306620000000000559e+00 5.907329999999999970e+00 8.550169999999999604e+00 1.571199999999999930e+00 1.193540000000000045e+00 1.023386999999999958e+01 2.370690000000000186e+00 3.586489999999999956e+00 1.150477000000000061e+01 3.245870000000000033e+00 5.930589999999999584e+00 1.001857000000000042e+01 4.154209999999999958e+00 1.292980000000000018e+00 1.169077000000000055e+01 4.959929999999999950e+00 3.694049999999999834e+00 1.272866999999999926e+01 6.019260000000000055e+00 6.098139999999999894e+00 1.144157000000000046e+01 6.558539999999999814e+00 1.325599999999999890e+00 1.309937000000000040e+01 7.628849999999999909e+00 3.523789999999999978e+00 1.450807000000000002e+01 8.356419999999999959e+00 6.001430000000000042e+00 5.767789999999999750e+00 4.891189999999999927e+00 5.397739999999999760e+00
4.362379999999999924e+00 2.484109999999999818e+00 7.007329999999999615e+00 5.894269999999999676e+00 8.296509999999999607e+00 2.351550000000000029e+00 1.151439000000000057e+01 1.652060000000000084e+00 4.686619999999999564e+00 9.976110000000000255e+00 2.481570000000000054e+00 8.956000000000000072e-02 2.888349999999999973e+00 3.312170000000000059e+00 2.311329999999999885e+00 4.282969999999999722e+00 4.116920000000000357e+00 4.599169999999999980e+00 7.158920000000000172e+00 7.380670000000000286e+00 7.009789999999999743e+00 4.410669999999999646e+00 5.842830000000000190e+00 2.257359999999999811e+00 1.430890999999999913e+01 6.512450000000000294e+00 4.734689999999999621e+00 7.208680000000000199e+00 7.448360000000000092e+00 1.236899999999999944e-01 8.765399999999999636e+00 8.258050000000000779e+00 2.350429999999999797e+00 1.013613999999999926e+01 9.107649999999999579e+00 4.708269999999999733e+00 4.405840000000000423e+00 2.494730000000000114e+00 5.306999999999999912e-02 5.837830000000000297e+00 3.307990000000000208e+00 2.377600000000000158e+00 7.214789999999999814e+00 4.156959999999999766e+00 4.850100000000000300e+00 5.758379999999999832e+00 4.849739999999999718e+00 1.379000000000000017e-02 7.173390000000000377e+00 5.749030000000000307e+00 2.406709999999999905e+00 8.608900000000000219e+00 6.695210000000000328e+00 4.722940000000000360e+00 9.987339999999999662e+00 2.507490000000000219e+00 7.025089999999999613e+00 1.152875000000000050e+01 8.218859999999999388e+00 2.294059999999999988e+00 1.301336000000000048e+01 9.075129999999999697e+00 4.722699999999999676e+00 1.144807999999999915e+01 4.906859999999999999e+00 6.930790000000000006e+00 8.715139999999999887e+00 3.258430000000000160e+00 2.477419999999999956e+00 9.993190000000000239e+00 4.171439999999999593e+00 4.709130000000000038e+00 8.475020000000000664e+00 5.045499999999999652e+00 7.069999999999999896e-03 1.017469000000000001e+01 5.851300000000000168e+00 2.305550000000000210e+00 1.150578999999999930e+01 6.616139999999999688e+00 4.633060000000000400e+00 2.901670000000000194e+00 1.707910000000000039e+00 1.218630000000000102e+00 4.372810000000000308e+00 2.418810000000000127e+00 3.390229999999999855e+00 5.742370000000000196e+00 3.098050000000000193e+00 6.027980000000000338e+00 4.395999999999999908e+00 4.139170000000000016e+00 1.157380000000000075e+00 5.726309999999999789e+00 5.017070000000000363e+00 3.278869999999999951e+00 7.385769999999999946e+00 5.881689999999999863e+00 5.876660000000000217e+00 5.808569999999999567e+00 6.596849999999999881e+00 1.231500000000000039e+00 7.356379999999999697e+00 7.500020000000000131e+00 3.484519999999999840e+00 8.750209999999999155e+00 8.284629999999999939e+00 5.846339999999999648e+00 5.815279999999999561e+00 1.703470000000000040e+00 1.095469999999999944e+00 7.251970000000000027e+00 2.517539999999999889e+00 3.584379999999999900e+00 8.547629999999999839e+00 3.266529999999999934e+00 6.018040000000000056e+00 7.189540000000000042e+00 4.110249999999999737e+00 1.053800000000000070e+00 8.797040000000000859e+00 4.887010000000000076e+00 3.517279999999999962e+00 9.964760000000000062e+00 5.822890000000000121e+00 5.795849999999999724e+00 8.622120000000000672e+00 6.597970000000000113e+00 1.218059999999999921e+00 1.017568999999999946e+01 7.602330000000000254e+00 3.416110000000000202e+00 1.155908999999999942e+01 8.237040000000000362e+00 5.827370000000000161e+00 8.605119999999999436e+00 1.595010000000000039e+00 1.246809999999999974e+00 1.006147999999999954e+01 2.489160000000000039e+00 3.565090000000000092e+00 1.141578999999999944e+01 3.243419999999999970e+00 5.796470000000000233e+00 1.021078999999999937e+01 4.117890000000000050e+00 1.189149999999999929e+00 1.149139000000000088e+01 5.046719999999999651e+00 3.549819999999999975e+00 1.267389000000000010e+01 5.944449999999999790e+00 5.912959999999999994e+00 1.168059000000000047e+01 6.687890000000000335e+00 1.133699999999999930e+00 1.291118999999999950e+01 7.399969999999999715e+00 3.475449999999999928e+00 1.447968999999999973e+01 8.426830000000000709e+00 5.950619999999999798e+00 5.661629999999999718e+00 4.835329999999999906e+00 5.402540000000000120e+00