6.181135936999999636e+00 0.000000000000000000e+00 0.000000000000000000e+00 -1.533839957999999948e+00 8.016591441999999290e+00 0.000000000000000000e+00 -1.540794921999999900e+00 2.695341411999999881e+00 7.560940881999999696e+00
6.197318069999999679e+00 0.000000000000000000e+00 0.000000000000000000e+00 -1.571147960000000010e+00 8.065245188000000454e+00 0.000000000000000000e+00 -1.567648622000000103e+00 2.703759504999999841e+00 7.590275094999999972e+00
6.163808036999999906e+00 0.000000000000000000e+00 0.000000000000000000e+00 4.626723922000000044e+00 8.007937962999999826e+00 0.000000000000000000e+00 4.626790002999999984e+00 2.668796330000000161e+00 7.545999730000000127e+00
6.218864865999999658e+00 0.000000000000000000e+00 0.000000000000000000e+00 -1.538670568999999988e+00 8.045162440000000359e+00 0.000000000000000000e+00 -1.607193045000000042e+00 2.683394873000000125e+00 7.612693647999999591e+00
6.170331454000000271e+00 0.000000000000000000e+00 0.000000000000000000e+00 -1.554215557000000025e+00 8.058457064000000614e+00 0.000000000000000000e+00 -1.558397215000000058e+00 2.725962935000000087e+00 7.581816295000000316e+00
6.248228343000000073e+00 0.000000000000000000e+00 0.000000000000000000e+00 -1.554413837000000020e+00 8.097222860000000466e+00 0.000000000000000000e+00 -1.555575812000000058e+00 2.705617129000000176e+00 7.672047538000000166e+00
6.162724556999999770e+00 0.000000000000000000e+00 0.000000000000000000e+00 -1.552860452000000002e+00 8.007938231000000684e+00 0.000000000000000000e+00 -1.532395895000000063e+00 2.615222783000000106e+00 7.545088477000000182e+00
6.205290624999999949e+00 0.000000000000000000e+00 0.000000000000000000e+00 -1.550133830999999907e+00 8.056025032999999169e+00 0.000000000000000000e+00 -1.543417220000000034e+00 2.666255752000000090e+00 7.606193994999999930e+00
6.266722044999999852e+00 0.000000000000000000e+00 0.000000000000000000e+00 -1.570612504999999937e+00 8.131534332999999393e+00 0.000000000000000000e+00 -1.581861506000000084e+00 2.686984369000000150e+00 7.677380625999999708e+00
6.182736724999999822e+00 0.000000000000000000e+00 0.000000000000000000e+00 -1.589304180000000066e+00 8.053871423000000362e+00 0.000000000000000000e+00 -1.533691197000000006e+00 2.666614473000000096e+00 7.604965092999999676e+00
6.147185000000000343e+00 0.000000000000000000e+00 0.000000000000000000e+00 4.610388999999999626e+00 7.985426999999999609e+00 0.000000000000000000e+00 4.610388999999999626e+00 2.661808999999999870e+00 7.528732999999999898e+00
6.227622979999999586e+00 0.000000000000000000e+00 0.000000000000000000e+00 -1.548080928000000078e+00 8.054737658000000522e+00 0.000000000000000000e+00 -1.544528810000000085e+00 2.620673320999999945e+00 7.593116939999999815e+00
6.215110304999999613e+00 0.000000000000000000e+00 0.000000000000000000e+00 -1.555065499999999989e+00 8.110525722000000215e+00 0.000000000000000000e+00 -1.558574726000000021e+00 2.693281369999999786e+00 7.606246080000000021e+00
6.193216174999999879e+00 0.000000000000000000e+00 0.000000000000000000e+00 -1.568558380999999891e+00 7.992935149000000017e+00 0.000000000000000000e+00 -1.582324977000000077e+00 2.588296736000000209e+00 7.558098397000000190e+00
6.220832703000000130e+00 0.000000000000000000e+00 0.000000000000000000e+00 -1.570757122999999922e+00 8.053328886999999270e+00 0.000000000000000000e+00 -1.578625621999999895e+00 2.596688741999999994e+00 7.607839134999999864e+00
6.222582646000000217e+00 0.000000000000000000e+00 0.000000000000000000e+00 -1.556330414000000051e+00 8.038668087999999656e+00 0.000000000000000000e+00 -1.552994481999999898e+00 2.635960900999999801e+00 7.584294154000000177e+00
6.127493196999999725e+00 0.000000000000000000e+00 0.000000000000000000e+00 -1.489060886999999944e+00 8.077687308999999871e+00 0.000000000000000000e+00 -1.493804000999999992e+00 2.660320430000000069e+00 7.629701755000000141e+00
6.176430456000000291e+00 0.000000000000000000e+00 0.000000000000000000e+00 -1.562899424000000037e+00 8.044363292999999970e+00 0.000000000000000000e+00 -1.557048162999999930e+00 2.658676481000000091e+00 7.608288936000000113e+00
6.275252977000000065e+00 0.000000000000000000e+00 0.000000000000000000e+00 -1.595298319000000076e+00 8.153427964000000472e+00 0.000000000000000000e+00 -1.577098010999999911e+00 2.657575288999999952e+00 7.729745185999999713e+00
6.192858091999999814e+00 0.000000000000000000e+00 0.000000000000000000e+00 -1.559565861000000053e+00 8.033747391000000349e+00 0.000000000000000000e+00 -1.554014232000000106e+00 2.651437433999999982e+00 7.584297571999999654e+00
6.230144066000000258e+00 0.000000000000000000e+00 0.000000000000000000e+00 -1.540279117000000086e+00 8.071733491999999899e+00 0.000000000000000000e+00 -1.545546985000000095e+00 2.661634289999999847e+00 7.616696330999999986e+00
6.172129985999999846e+00 0.000000000000000000e+00 0.000000000000000000e+00 -1.533839133000000077e+00 8.053233798000000832e+00 0.000000000000000000e+00 -1.554359942999999911e+00 2.744674401000000152e+00 7.580818644999999911e+00
6.182169512999999839e+00 0.000000000000000000e+00 0.000000000000000000e+00 -1.492369376999999941e+00 7.980339058000000207e+00 0.000000000000000000e+00 -1.467767180999999921e+00 2.612336432000000208e+00 7.508659202999999671e+00
6.161934672000000113e+00 0.000000000000000000e+00 0.000000000000000000e+00 -1.556598122999999889e+00 8.068618682000000319e+00 0.000000000000000000e+00 -1.552461493000000026e+00 2.789370091999999968e+00 7.573775023999999689e+00
6.246165270999999741e+00 0.000000000000000000e+00 0.000000000000000000e+00 -1.581958688999999918e+00 8.121588715999999764e+00 0.000000000000000000e+00 -1.578239012000000052e+00 2.702453171000000154e+00 7.684591894000000423e+00
6.131028055999999893e+00 0.000000000000000000e+00 0.000000000000000000e+00 -1.561786700999999944e+00 7.988723538000000346e+00 0.000000000000000000e+00 -1.545501838000000072e+00 2.642660082999999993e+00 7.480069190000000035e+00
6.395013112000000000e+00 0.000000000000000000e+00 0.000000000000000000e+00 -1.621066930000000017e+00 8.296828653000000386e+00 0.000000000000000000e+00 -1.615226798999999991e+00 2.789769477000000109e+00 7.720480242999999909e+00
6.195155972000000233e+00 0.000000000000000000e+00 0.000000000000000000e+00 -1.565747293000000040e+00 8.007433026999999370e+00 0.000000000000000000e+00 -1.559731549999999967e+00 2.596805836999999784e+00 7.580112667999999942e+00
6.204820480000000416e+00 0.000000000000000000e+00 0.000000000000000000e+00 -1.557759440000000106e+00 8.044306225999999782e+00 0.000000000000000000e+00 -1.564463058000000073e+00 2.673995979999999939e+00 7.611733021000000043e+00
6.153415908000000378e+00 0.000000000000000000e+00 0.000000000000000000e+00 -1.562303049999999915e+00 7.962248404000000335e+00 0.000000000000000000e+00 -1.550104627999999929e+00 2.578958474999999861e+00 7.521590666999999897e+00
6.204620951999999967e+00 0.000000000000000000e+00 0.000000000000000000e+00 -1.557444556999999952e+00 8.044379854000000662e+00 0.000000000000000000e+00 -1.542892267000000039e+00 2.627815812000000140e+00 7.504721976999999988e+00
6.167912642000000112e+00 0.000000000000000000e+00 0.000000000000000000e+00 -1.584564051999999945e+00 8.063953655000000609e+00 0.000000000000000000e+00 -1.585556785000000080e+00 2.654228105000000060e+00 7.548943605999999917e+00
6.325132752000000025e+00 0.000000000000000000e+00 0.000000000000000000e+00 -1.631943699000000025e+00 8.254777015000000162e+00 0.000000000000000000e+00 -1.499426767999999965e+00 2.839507272000000082e+00 7.792769673999999647e+00
6.206151009000000052e+00 0.000000000000000000e+00 0.000000000000000000e+00 -1.561130974999999976e+00 8.070147327999999121e+00 0.000000000000000000e+00 -1.551229288999999900e+00 2.685941511999999864e+00 7.603795253999999559e+00
6.321275081999999657e+00 0.000000000000000000e+00 0.000000000000000000e+00 -1.562187333000000011e+00 8.193910702000000157e+00 0.000000000000000000e+00 -1.578652645000000021e+00 2.713089679999999948e+00 7.722428367000000016e+00
6.167311824999999637e+00 0.000000000000000000e+00 0.000000000000000000e+00 -1.529857381000000016e+00 7.957672756000000014e+00 0.000000000000000000e+00 -1.523002731000000054e+00 2.559092635999999921e+00 7.512053883000000098e+00
6.167191668000000071e+00 0.000000000000000000e+00 0.000000000000000000e+00 -1.557559684000000111e+00 8.040810756000000836e+00 0.000000000000000000e+00 -1.545054807000000086e+00 2.685245356999999888e+00 7.582681336000000272e+00
6.147185000000000343e+00 0.000000000000000000e+00 0.000000000000000000e+00 4.610388999999999626e+00 7.985426999999999609e+00 0.000000000000000000e+00 4.610388999999999626e+00 2.661808999999999870e+00 7.528732999999999898e+00
6.268379133999999908e+00 0.000000000000000000e+00 0.000000000000000000e+00 -1.557563054999999919e+00 8.105805456000000575e+00 0.000000000000000000e+00 -1.562913830999999920e+00 2.708174373999999940e+00 7.597097945999999880e+00
6.199594055000000381e+00 0.000000000000000000e+00 0.000000000000000000e+00 -1.630124868000000005e+00 8.111225615000000388e+00 0.000000000000000000e+00 -1.629528046999999980e+00 2.695428568000000080e+00 7.682698627999999808e+00
6.241711816999999662e+00 0.000000000000000000e+00 0.000000000000000000e+00 -1.612557180000000034e+00 8.160329028999999679e+00 0.000000000000000000e+00 -1.598289199999999965e+00 2.735934497000000132e+00 7.644531169000000403e+00
6.142037218999999659e+00 0.000000000000000000e+00 0.000000000000000000e+00 -1.507943309000000065e+00 7.979796722999999758e+00 0.000000000000000000e+00 -1.520599693999999946e+00 2.706176600000000043e+00 7.524494791999999599e+00
6.365703307000000422e+00 0.000000000000000000e+00 0.000000000000000000e+00 -1.579524812999999916e+00 8.192767647000000153e+00 0.000000000000000000e+00 -1.579291942000000004e+00 2.644022598999999918e+00 7.781977911000000248e+00
6.103955917999999592e+00 0.000000000000000000e+00 0.000000000000000000e+00 -1.564248410999999894e+00 7.953116072000000258e+00 0.000000000000000000e+00 -1.558788920000000022e+00 2.597206754000000117e+00 7.483713843000000310e+00
6.279055132999999955e+00 0.000000000000000000e+00 0.000000000000000000e+00 -1.556593139999999931e+00 8.182120775999999651e+00 0.000000000000000000e+00 -1.602086869999999941e+00 2.680564862000000215e+00 7.736726048000000411e+00
6.105251646000000143e+00 0.000000000000000000e+00 0.000000000000000000e+00 -1.563564584000000091e+00 8.011673237000000114e+00 0.000000000000000000e+00 -1.574265172000000046e+00 2.663853335999999850e+00 7.478888107000000396e+00
6.137151582000000438e+00 0.000000000000000000e+00 0.000000000000000000e+00 -1.557206357000000096e+00 7.915312660999999750e+00 0.000000000000000000e+00 -1.573105565000000094e+00 2.690522377000000187e+00 7.457684890000000344e+00
6.116179970000000132e+00 0.000000000000000000e+00 0.000000000000000000e+00 -1.514262919999999957e+00 7.990872372000000112e+00 0.000000000000000000e+00 -1.513931168000000049e+00 2.661120684000000125e+00 7.545031716999999638e+00
6.310093171000000112e+00 0.000000000000000000e+00 0.000000000000000000e+00 -1.583172953999999910e+00 8.244908824999999553e+00 0.000000000000000000e+00 -1.566290186999999889e+00 2.751261452000000052e+00 7.742171760999999819e+00
6.171920542999999704e+00 0.000000000000000000e+00 0.000000000000000000e+00 -1.552450864000000097e+00 7.995553208999999661e+00 0.000000000000000000e+00 -1.534493056000000077e+00 2.629785838000000098e+00 7.560889341000000208e+00
