-2.783725629599999820e+02
-2.789225343699999939e+02
-2.766555688899999836e+02
-2.748897592999999802e+02
-2.786363395399999945e+02
-2.731619216899999856e+02
-2.786092434199999843e+02
-2.768247695599999929e+02
-2.721546852100000251e+02
-2.765556596700000114e+02
-2.798435255200000142e+02
-2.782727185300000201e+02
-2.718496134399999846e+02
-2.742917122599999971e+02
-2.737119166499999778e+02
-2.785347171000000230e+02
-2.765030602400000248e+02
-2.744704043799999909e+02
-2.743703036900000143e+02
-2.784281591800000228e+02
-2.768147785500000282e+02
-2.786202285900000106e+02
-2.765117140099999915e+02
-2.786644804499999850e+02
-2.752905577600000129e+02
-2.739590435399999819e+02
-2.703873909899999717e+02
-2.788918276100000071e+02
-2.746642716200000223e+02
-2.735373421400000211e+02
-2.763351385899999855e+02
-2.761577310600000033e+02
-2.723472557299999721e+02
-2.788620761199999833e+02
-2.761028924099999813e+02
-2.786135770899999784e+02
-2.788642264800000135e+02
-2.798435255200000142e+02
-2.753740019499999789e+02
-2.758073800500000061e+02
-2.753893465699999865e+02
-2.782972268199999917e+02
-2.726822103900000229e+02
-2.753930891800000040e+02
-2.748927779100000066e+02
-2.740215563699999848e+02
-2.759560790699999870e+02
-2.779993412900000180e+02
-2.752439690499999756e+02
-2.786990834700000050e+02
