-1.513499999999999915e-02 2.539870000000000183e-01 -4.597289999999999988e-01 3.098000000000000198e-01 2.602119999999999989e-01 -8.595999999999999475e-02 2.207500000000000087e-02 3.308340000000000169e-01 3.437970000000000192e-01 2.411619999999999875e-01 -4.540569999999999884e-01 -1.222830000000000028e-01 1.119290000000000007e-01 -3.587540000000000173e-01 3.543799999999999728e-02 2.136149999999999993e-01 -3.018129999999999979e-01 3.995009999999999950e-01 2.176720000000000044e-01 -1.436149999999999927e-01 -4.509150000000000102e-01 2.194669999999999954e-01 -8.901399999999999590e-02 1.557439999999999936e-01 -1.744979999999999865e-01 -1.829439999999999955e-01 1.843259999999999899e-01 -1.781889999999999863e-01 2.081310000000000104e-01 3.968499999999999805e-02 -1.756409999999999916e-01 -2.229549999999999865e-01 -2.231470000000000120e-01 -2.259249999999999869e-01 1.073680000000000051e-01 1.812110000000000110e-01 1.577200000000000130e-02 -4.906260000000000066e-01 7.967349999999999710e-01 -1.192389999999999978e-01 6.891500000000000403e-02 -1.524469999999999992e-01 -7.812399999999999900e-02 6.500650000000000039e-01 -9.366740000000000066e-01 -2.794630000000000170e-01 5.053480000000000194e-01 2.725099999999999745e-01 -4.654300000000000104e-02 4.077120000000000188e-01 2.482000000000000040e-01 1.684920000000000029e-01 -2.200689999999999868e-01 2.879120000000000013e-01 -3.037790000000000212e-01 -2.257099999999999884e+00 4.487579999999999902e-01 4.541839999999999766e-01 -3.485699999999999910e-01 -2.099979999999999902e-01 -5.354699999999999738e-02 9.054399999999999948e-02 7.368800000000000350e-02 -2.653559999999999808e-01 2.350309999999999899e-01 -1.414970000000000117e-01 1.970780000000000032e-01 3.521179999999999866e-01 -4.824180000000000135e-01 -2.859019999999999895e-01 -2.018199999999999855e-02 2.344729999999999870e-01 2.019254000000000104e+00 1.077329999999999899e+00 8.206839999999999691e-01 -1.899349999999999927e-01 -3.717179999999999929e-01 -2.257588000000000150e+00 -3.252100000000000130e-02 5.200999999999999894e-03 -1.301000000000000073e-02 9.070400000000000684e-02 -4.668450000000000100e-01 4.917900000000000049e-01 -2.055160000000000042e-01 -9.533400000000000207e-02 2.159499999999999961e-02 2.316100000000000103e-01 -1.237079999999999985e-01 -1.106820000000000026e-01 1.073400000000000049e-02 4.847400000000000320e-02 -1.045100000000000022e-02 -1.281410000000000049e-01 -2.964200000000000168e-02 5.223499999999999671e-02 6.792199999999999627e-02 2.301800000000000027e-02 7.641799999999999982e-02 -1.721117999999999926e+00 1.283211000000000102e+00 9.226860000000000062e-01 -1.128979999999999984e-01 2.694449999999999901e-01 -4.305849999999999955e-01
-9.211700000000000443e-02 1.999410000000000076e-01 -2.850469999999999948e-01 5.455870000000000442e-01 7.374460000000000459e-01 -1.679039999999999977e-01 -3.837459999999999760e-01 -5.120399999999999952e-02 -2.962000000000000050e-02 1.613960000000000117e-01 1.553080000000000016e-01 9.066100000000000547e-02 -2.250369999999999870e-01 -9.619389999999999885e-01 4.509699999999999820e-02 9.987699999999999356e-02 -1.046799999999999953e-01 3.302800000000000180e-01 -1.555999999999999883e-01 -2.763309999999999933e-01 -8.461940000000000017e-01 3.885810000000000097e-01 1.637699999999999989e-01 3.963059999999999916e-01 -1.712829999999999908e-01 1.118519999999999931e-01 1.984579999999999955e-01 -9.551800000000000568e-02 3.867840000000000167e-01 -1.414600000000000059e-02 -2.691879999999999828e-01 -1.056200000000000055e-01 1.787100000000000147e-02 -6.844100000000000183e-02 7.509699999999999709e-02 1.347530000000000117e-01 1.411540000000000017e-01 -7.477470000000000505e-01 2.055699999999999888e-02 -2.800300000000000011e-01 3.261260000000000270e-01 1.470670000000000033e-01 1.937649999999999928e-01 -1.176309999999999995e-01 -4.220709999999999740e-01 -3.419579999999999842e-01 7.731499999999999484e-02 -9.177200000000000635e-02 1.047079999999999955e-01 8.519500000000000683e-02 2.744480000000000253e-01 3.242860000000000187e-01 7.446800000000000641e-02 -2.640270000000000117e-01 -1.366350000000000064e-01 -1.542370999999999936e+00 6.298540000000000250e-01 1.449809999999999988e-01 7.633700000000000208e-02 1.228149999999999936e-01 -1.078930000000000028e-01 -2.419920000000000126e-01 -2.162900000000000100e-01 1.656489999999999907e-01 9.871000000000000607e-02 3.104099999999999915e-02 3.366750000000000020e-01 -3.004499999999999948e-01 4.106200000000000128e-02 1.174319999999999947e-01 -1.240030000000000021e-01 1.282300000000000106e-01 1.259492999999999974e+00 8.383479999999999821e-01 6.080560000000000409e-01 -2.801350000000000229e-01 4.596000000000000259e-03 -1.611725999999999992e+00 -9.062399999999999622e-02 -2.858760000000000190e-01 3.862079999999999957e-01 7.642999999999999794e-02 -4.152700000000000141e-02 3.629330000000000056e-01 3.023959999999999981e-01 -6.441970000000000196e-01 -5.363970000000000127e-01 -5.757299999999999918e-02 1.719899999999999901e-02 8.307000000000000148e-03 -1.092899999999999983e-01 2.699529999999999985e-01 4.415410000000000168e-01 -2.010450000000000015e-01 2.801219999999999821e-01 -5.541749999999999732e-01 -2.335849999999999871e-01 4.380149999999999877e-01 1.333799999999999916e-02 -1.099893999999999927e+00 9.005560000000000231e-01 6.848199999999999843e-01 3.717999999999999777e-02 2.284309999999999952e-01 -7.433299999999999630e-02
-3.429229999999999778e-01 9.000350000000000295e-01 7.778620000000000534e-01 1.019257999999999997e+00 1.005155000000000021e+00 1.078397000000000050e+00 -1.128932999999999964e+00 1.834790000000000032e-01 -1.233513999999999999e+00 1.099461000000000022e+00 -4.821559999999999735e-01 -2.360520000000000118e-01 2.709050000000000069e-01 -1.376676000000000011e+00 8.910069999999999935e-01 8.175769999999999982e-01 -1.140592000000000050e+00 2.146262999999999810e+00 -4.587060000000000026e-01 6.294340000000000490e-01 -1.239667000000000074e+00 -4.935479999999999867e-01 -1.253970000000000085e-01 1.936061999999999950e+00 -6.404609999999999470e-01 -5.298880000000000257e-01 -1.082608000000000015e+00 4.743269999999999986e-01 1.631064999999999987e+00 -8.374310000000000365e-01 5.979780000000000095e-01 1.312319999999999931e+00 -1.160899999999999953e-02 3.010450000000000070e-01 -7.192979999999999929e-01 -2.028590000000000115e-01 -7.823200000000000154e-01 -9.213409999999999656e-01 -3.790479999999999960e-01 2.200499999999999956e-01 5.806440000000000490e-01 1.693830000000000058e-01 2.037470000000000114e-01 2.160529999999999951e-01 -9.731429999999999803e-01 -2.597829999999999862e-01 -1.638670000000000126e-01 -3.850069999999999881e-01 -4.929549999999999765e-01 5.883580000000000476e-01 2.258480000000000043e+00 -4.901739999999999986e-01 -1.021327000000000096e+00 -1.033239000000000019e+00 4.718399999999999817e-01 -1.526818000000000008e+00 -3.726110000000000255e-01 2.012112999999999818e+00 -9.933600000000000207e-01 -1.732337999999999933e+00 -5.567020000000000302e-01 2.510080000000000089e-01 -1.520653000000000032e+00 1.892040000000000111e-01 -7.229119999999999990e-01 -7.776889999999999636e-01 1.278783999999999921e+00 6.433229999999999782e-01 8.811430000000000096e-01 -8.878800000000000026e-01 6.098890000000000144e-01 -1.738490000000000091e+00 1.672569999999999890e+00 1.125393000000000088e+00 1.294067999999999996e+00 1.510259999999999936e+00 4.101509999999999878e-01 -1.357944000000000040e+00 -6.361560000000000548e-01 -6.761300000000000088e-01 1.037538999999999989e+00 -1.582854999999999901e+00 1.193327000000000027e+00 5.581720000000000015e-01 -9.385820000000000274e-01 1.278413000000000022e+00 -8.017699999999999827e-02 -1.382792000000000021e+00 -9.727390000000000203e-01 -8.025980000000000336e-01 6.228860000000000507e-01 7.528559999999999697e-01 5.190369999999999706e-01 -4.638860000000000205e-01 -7.643050000000000122e-01 9.344949999999999646e-01 5.440509999999999513e-01 7.883390000000000120e-01 1.675419999999999965e-01 -1.267759000000000080e+00 -7.823700000000000099e-02 9.602209999999999912e-01 -4.996349999999999958e-01 -1.884198999999999957e+00 3.870049999999999879e-01
-1.280453999999999981e+00 1.326584999999999903e+00 -9.929440000000000488e-01 7.870000000000000259e-03 4.938219999999999832e-01 6.217799999999999994e-01 2.142006999999999994e+00 9.647909999999999542e-01 -4.413960000000000106e-01 1.116359999999999991e-01 1.690689999999999971e-01 -5.600000000000000533e-01 -1.946660000000000057e+00 -1.261409999999999920e+00 8.055330000000000545e-01 8.741459999999999786e-01 -7.362220000000000431e-01 -8.633599999999999608e-02 -7.467730000000000201e-01 -1.245428999999999897e+00 -1.675339999999999885e-01 -4.140159999999999951e-01 8.431939999999999991e-01 -1.938110000000000110e-01 -9.243440000000000545e-01 -5.257659999999999556e-01 7.995309999999999917e-01 -9.356759999999999522e-01 1.631630000000000025e-01 -2.775476999999999972e+00 -7.643060000000000409e-01 8.041610000000000147e-01 -1.278259999999999952e+00 -3.099689999999999945e-01 1.068181000000000047e+00 3.233679999999999888e-01 -7.379059999999999508e-01 -9.105330000000000368e-01 1.211967000000000017e+00 1.337236000000000091e+00 1.061738000000000071e+00 -2.688928000000000207e+00 1.077974999999999905e+00 1.265325000000000033e+00 2.029269999999999963e-01 -2.280934999999999935e+00 4.672000000000000042e-01 5.403559999999999475e-01 1.053698999999999941e+00 1.567389999999999894e-01 1.925546999999999898e+00 1.798882000000000092e+00 -6.219500000000000028e-01 -1.874789000000000039e+00 1.480629999999999891e+00 -9.033799999999999608e-01 1.726771999999999974e+00 -1.871663999999999994e+00 -1.310575000000000045e+00 -2.360440000000000038e-01 1.135880999999999919e+00 5.725369999999999626e-01 1.550205999999999973e+00 3.651460000000000261e-01 -2.253590000000000038e-01 -2.748499999999999832e-01 -6.896010000000000195e-01 -3.050080000000000013e-01 4.912009999999999987e-01 -4.085400000000000142e-02 -1.483684999999999921e+00 -1.002280000000000060e+00 2.361492999999999842e+00 -6.813669999999999449e-01 -3.101900000000000213e-01 4.162683999999999607e+00 -1.148060000000000080e+00 -1.705140000000000100e+00 2.298138999999999932e+00 -1.000421999999999922e+00 1.120649999999999979e-01 -7.940660000000000496e-01 1.374363999999999919e+00 5.400549999999999518e-01 1.368890000000000107e-01 1.162106000000000083e+00 1.569914000000000032e+00 -1.625588000000000033e+00 1.131826999999999916e+00 3.614066999999999918e+00 5.244299999999999656e-02 -1.167375999999999969e+00 1.704259999999999942e-01 -1.652557999999999971e+00 6.189400000000000457e-01 -1.995343000000000089e+00 -3.503049999999999775e-01 9.462199999999999500e-01 -6.414699999999999569e-02 -3.373369999999999980e-01 9.847960000000000047e-01 -4.087129999999999930e-01 -2.693744000000000138e+00 -2.048216000000000037e+00 8.504650000000000265e-01
1.804599999999999954e-02 3.460400000000000281e-02 -7.139360000000000150e-01 -1.282780000000000031e-01 3.007340000000000013e-01 4.801659999999999817e-01 2.562209999999999765e-01 -2.663969999999999949e-01 -3.956300000000000094e-02 -1.021859999999999991e-01 -4.316530000000000089e-01 -2.699650000000000105e-01 -5.084459999999999535e-01 -4.413360000000000061e-01 2.786379999999999968e-01 9.165500000000000036e-02 -4.750090000000000146e-01 3.762849999999999806e-01 -5.104919999999999458e-01 6.787999999999999590e-02 -5.483339999999999881e-01 4.609900000000000109e-02 6.926139999999999519e-01 1.495140000000000080e-01 -1.915330000000000088e-01 3.783039999999999736e-01 -3.972099999999999936e-02 8.099000000000000643e-02 4.746879999999999988e-01 7.531300000000000494e-02 -1.039930000000000021e-01 1.360870000000000135e-01 8.466700000000000614e-02 -1.277050000000000129e-01 6.019000000000000045e-02 -5.766199999999999798e-02 1.921120000000000050e-01 -5.551040000000000418e-01 -3.002600000000000061e-02 -3.914399999999999824e-02 9.634099999999999608e-02 3.732639999999999847e-01 3.264670000000000072e-01 -9.264100000000000112e-02 -5.656440000000000357e-01 -2.072849999999999970e-01 -1.366110000000000102e-01 6.973400000000000432e-02 -1.620949999999999891e-01 1.466880000000000128e-01 3.948090000000000210e-01 6.237989999999999924e-01 -2.617579999999999907e-01 -1.016650000000000054e-01 4.834999999999999715e-02 -1.942347999999999963e+00 5.995759999999999978e-01 -2.793500000000000150e-02 2.587559999999999860e-01 1.626470000000000138e-01 3.683649999999999980e-01 3.026099999999999970e-02 6.271899999999999697e-02 -1.418280000000000096e-01 4.140229999999999744e-01 -2.684520000000000239e-01 3.582080000000000264e-01 -1.183730000000000060e-01 -1.368709999999999927e-01 -1.186429999999999985e-01 -1.544069999999999887e-01 3.677690000000000126e-01 1.610222000000000042e+00 8.651280000000000081e-01 6.038099999999999579e-01 1.582310000000000105e-01 -2.271549999999999958e-01 -2.045132999999999868e+00 -3.555769999999999764e-01 -4.044800000000000062e-01 2.452159999999999895e-01 -1.666479999999999906e-01 5.499400000000000122e-02 1.810640000000000027e-01 -4.570500000000000257e-02 -4.357940000000000147e-01 -2.494399999999999951e-01 -1.235310000000000019e-01 5.776449999999999640e-01 3.781280000000000197e-01 2.408689999999999998e-01 1.393900000000000000e-02 1.722420000000000062e-01 -1.340379999999999905e-01 9.508800000000000585e-02 -6.317439999999999722e-01 2.000899999999999901e-01 1.643139999999999878e-01 -6.133000000000000430e-03 -1.176226999999999911e+00 9.712129999999999930e-01 7.905389999999999917e-01 -2.484349999999999892e-01 1.095720000000000027e-01 -1.418109999999999926e-01
1.773190999999999962e+00 7.556880000000000264e-01 1.131815000000000015e+00 5.757689999999999753e-01 1.235532000000000075e+00 -6.822690000000000143e-01 -1.066635999999999918e+00 -1.639034000000000102e+00 -4.446550000000000225e-01 1.584438000000000013e+00 -3.093929999999999736e-01 1.071185999999999972e+00 -6.061280000000000001e-01 -4.924100000000000144e-01 2.286700999999999873e+00 -2.664312999999999931e+00 1.971530000000000005e+00 5.436020000000000296e-01 -2.255562999999999985e+00 9.065379999999999550e-01 -1.435910999999999937e+00 -1.794534000000000074e+00 4.781440000000000135e-01 9.019740000000000535e-01 1.472942999999999891e+00 7.490700000000000136e-01 -2.674709000000000003e+00 -4.342579999999999774e-01 -1.155496000000000079e+00 -1.582057000000000047e+00 -4.354979999999999962e-01 -9.945439999999999836e-01 -1.626123999999999903e+00 1.510559999999999958e-01 2.239879999999999927e-01 -1.878764000000000101e+00 5.235200000000000270e-02 1.565477000000000007e+00 8.273399999999999643e-01 1.089326999999999934e+00 -1.542272000000000087e+00 -6.344760000000000399e-01 3.465110000000000134e-01 -6.989699999999999802e-01 6.673419999999999908e-01 1.551657999999999982e+00 -4.461879999999999735e-01 4.711339999999999972e-01 3.509729999999999794e-01 9.494540000000000202e-01 1.200604999999999922e+00 -1.843434999999999935e+00 -1.598853999999999997e+00 1.164722999999999953e+00 -6.757750000000000146e-01 -2.824710000000000054e+00 6.588399999999999812e-01 1.132322000000000051e+00 -9.535139999999999727e-01 1.439550000000000107e+00 -1.456903999999999977e+00 6.528310000000000501e-01 -4.727370000000000183e-01 -9.538219999999999477e-01 -2.243479999999999919e-01 -1.465101999999999904e+00 -3.595110000000000250e-01 2.184018000000000015e+00 -5.703230000000000244e-01 -8.718299999999999661e-02 2.645290000000000141e-01 -1.525980000000000114e-01 1.752672000000000008e+00 2.992142999999999997e+00 6.485079999999999734e-01 2.191446000000000005e+00 -3.887970000000000037e-01 -2.650100999999999818e+00 -3.533330000000000082e-01 -1.088845000000000063e+00 1.954124999999999890e+00 -5.105779999999999763e-01 -1.162471999999999950e+00 2.368539000000000172e+00 7.578200000000000214e-02 7.129569999999999519e-01 2.848491000000000106e+00 -2.079090000000000105e-01 3.676749999999999741e-01 4.793049999999999811e-01 5.256509999999999794e-01 3.764609999999999901e-01 -1.995159999999999989e-01 1.573471000000000064e+00 5.877050000000000329e-01 -1.635712000000000055e+00 2.586869000000000085e+00 -7.802459999999999951e-01 -1.392654999999999976e+00 -2.450499999999999901e+00 3.755879999999999774e-01 7.473210000000000131e-01 -6.305509999999999726e-01 -1.049234000000000000e+00 -1.913392999999999899e+00
4.897999999999999576e-03 -1.347399999999999987e-02 9.717099999999999349e-02 2.599139999999999784e-01 -6.674599999999999977e-02 1.587050000000000127e-01 -3.102940000000000142e-01 1.558660000000000045e-01 9.057500000000000273e-02 1.361680000000000113e-01 -1.183420000000000027e-01 4.752100000000000074e-02 4.148999999999999910e-03 -1.638209999999999944e-01 -2.537440000000000251e-01 -1.506230000000000069e-01 4.389900000000000052e-02 -2.373700000000000115e-02 -1.998149999999999926e-01 -1.766790000000000027e-01 -1.997400000000000009e-01 1.738409999999999955e-01 3.872000000000000008e-03 -1.803190000000000071e-01 -2.124129999999999907e-01 -2.074169999999999903e-01 3.093999999999999875e-02 -3.711869999999999892e-01 2.542710000000000248e-01 -4.309509999999999730e-01 1.773550000000000126e-01 1.216269999999999990e-01 2.786839999999999873e-01 -3.414209999999999745e-01 4.037999999999999923e-02 1.172620000000000051e-01 1.021400000000000086e-02 -3.064330000000000109e-01 -1.206100000000000054e-02 2.728500000000000023e-02 6.850799999999999945e-02 -8.218599999999999517e-02 1.788079999999999947e-01 3.611699999999999910e-01 -2.336920000000000108e-01 3.135749999999999926e-01 1.801860000000000128e-01 1.649000000000000075e-03 -3.907240000000000157e-01 -4.688910000000000022e-01 2.469139999999999946e-01 2.877660000000000218e-01 1.887799999999999895e-02 4.899270000000000014e-01 2.924399999999999777e-01 -2.137741999999999809e+00 -1.016039999999999999e-01 8.081800000000000095e-02 4.139599999999999946e-01 1.080799999999999955e-01 1.844369999999999898e-01 -2.831730000000000080e-01 -3.841729999999999867e-01 -3.213650000000000118e-01 -4.611599999999999727e-02 4.066469999999999807e-01 3.023589999999999889e-01 4.224910000000000054e-01 -1.755999999999999922e-02 -2.042380000000000029e-01 1.619869999999999921e-01 -2.316809999999999981e-01 1.215975999999999946e+00 1.266979000000000077e+00 1.168779999999999930e+00 2.682959999999999789e-01 -7.285960000000000214e-01 -1.986181999999999892e+00 -1.134339999999999932e-01 6.524599999999999844e-02 -1.688999999999999876e-02 -1.409920000000000062e-01 -1.193929999999999991e-01 8.462049999999999850e-01 3.473160000000000136e-01 -9.311129999999999685e-01 -7.344429999999999570e-01 -2.466750000000000054e-01 8.345900000000000540e-02 1.016999999999999892e-03 2.032879999999999965e-01 4.755780000000000007e-01 -5.360199999999999687e-02 -1.630729999999999957e-01 2.189369999999999927e-01 9.652299999999999769e-02 1.455510000000000137e-01 1.506900000000000080e-02 4.738269999999999982e-01 -1.428662000000000099e+00 7.347679999999999767e-01 6.923589999999999467e-01 -1.953699999999999881e-02 6.608049999999999757e-01 -4.102199999999999736e-01
7.388300000000000423e-02 -2.817279999999999784e-01 4.521959999999999869e-01 -3.336520000000000041e-01 -1.061822000000000044e+00 3.255919999999999925e-01 -1.759400000000000130e-01 -7.389199999999999935e-02 -1.479159999999999919e-01 -5.406600000000000295e-02 -3.194179999999999797e-01 -1.024769999999999986e-01 1.272830000000000072e-01 1.683749999999999969e-01 2.993870000000000142e-01 -2.878060000000000063e-01 2.018570000000000086e-01 1.149420000000000025e-01 -8.523699999999999333e-02 6.186169999999999725e-01 3.221299999999999858e-02 -3.626530000000000031e-01 4.081699999999999912e-02 -8.323669999999999680e-01 2.056149999999999922e-01 -4.754099999999999993e-02 2.156589999999999896e-01 5.043959999999999555e-01 -2.017740000000000089e-01 2.205080000000000096e-01 2.057360000000000022e-01 -3.296700000000000325e-02 -7.741199999999999470e-02 -2.443150000000000044e-01 -2.815440000000000165e-01 -1.602129999999999943e-01 -3.442599999999999827e-02 7.414999999999999716e-03 1.923910000000000065e-01 2.813749999999999862e-01 1.295000000000000040e-01 -4.076380000000000003e-01 -3.313340000000000174e-01 1.359509999999999885e-01 -3.150459999999999927e-01 4.741040000000000254e-01 1.771189999999999987e-01 5.054410000000000291e-01 -2.239970000000000017e-01 -1.486919999999999908e-01 -2.720110000000000028e-01 -8.269700000000000661e-02 -4.980530000000000235e-01 3.133969999999999811e-01 -1.325610000000000122e-01 -2.861437000000000008e+00 8.706129999999999702e-01 3.969630000000000103e-01 -3.656769999999999743e-01 -3.088429999999999787e-01 2.140900000000000025e-01 7.843689999999999829e-01 1.829439999999999955e-01 6.079400000000000082e-02 1.427384999999999904e+00 -7.424680000000000168e-01 2.138869999999999938e-01 9.813399999999999901e-02 -3.412180000000000213e-01 4.803850000000000064e-01 -3.889540000000000219e-01 1.428061000000000025e+00 2.931620999999999810e+00 1.035946000000000033e+00 6.211330000000000462e-01 -1.122780000000000028e-01 1.780130000000000046e-01 -3.030346000000000206e+00 -2.956679999999999864e-01 -3.501949999999999785e-01 2.903270000000000017e-01 -1.528009999999999924e-01 -1.384859999999999980e-01 1.128190000000000026e-01 -4.651600000000000179e-01 -1.246769999999999962e-01 -3.420849999999999724e-01 -1.064799999999999948e-02 1.691030000000000033e-01 3.899020000000000263e-01 -6.615000000000000220e-03 8.144799999999999818e-01 1.546780000000000099e-01 7.786700000000000566e-02 1.701380000000000114e-01 -3.702570000000000028e-01 8.352700000000000402e-02 4.843850000000000100e-01 5.866010000000000391e-01 -3.276618000000000031e+00 4.809010000000000229e-01 5.265509999999999913e-01 3.369460000000000233e-01 5.435099999999999654e-02 -3.850569999999999826e-01
5.712730000000000308e-01 5.618700000000000083e-02 -8.998169999999999780e-01 -9.043350000000000000e-01 1.062762999999999902e+00 -1.871210000000000095e-01 1.131645999999999930e+00 -5.302580000000000071e-01 1.709492000000000012e+00 2.407099000000000100e+00 -5.105769999999999476e-01 1.023652000000000006e+00 -3.566869999999999763e-01 2.286620000000000097e+00 6.526370000000000227e-01 3.663500000000000090e-02 -3.182891999999999832e+00 6.581150000000000055e-01 -4.423179999999999890e-01 -6.471369999999999623e-01 -1.515732999999999997e+00 4.472599999999999909e-01 -4.107700000000000240e-02 2.505430000000000157e-01 -4.471700000000000119e-01 1.825177999999999967e+00 1.410994000000000081e+00 -2.927429999999999755e-01 -1.244000000000000097e-03 -2.177226000000000106e+00 -2.760457000000000161e+00 6.233600000000000252e-01 1.745338999999999974e+00 -1.579500000000000001e-02 -5.724850000000000216e-01 4.630920000000000036e-01 6.626200000000000145e-02 -8.365409999999999791e-01 1.181245000000000100e+00 -2.232489999999999863e+00 1.074461000000000110e+00 -2.375274999999999803e+00 6.115420000000000300e-01 -2.005159999999999998e-01 -1.931324000000000041e+00 1.600109999999999921e+00 1.409221000000000057e+00 9.055459999999999621e-01 3.222000000000000038e-03 -2.728743999999999836e+00 1.899412000000000100e+00 3.532280000000000086e+00 5.968700000000000117e-01 -1.652822000000000013e+00 3.390489999999999893e-01 -2.069738000000000078e+00 -3.248770000000000269e-01 9.990100000000000369e-02 7.554950000000000276e-01 3.015461000000000169e+00 -3.853807000000000205e+00 -9.515299999999999869e-01 -1.676390000000000047e+00 -1.566224000000000061e+00 -2.307901000000000202e+00 -1.118687999999999905e+00 3.574945000000000039e+00 -2.130901000000000156e+00 -7.634670000000000067e-01 -1.246490000000000098e+00 4.854589999999999739e-01 -6.758969999999999700e-01 7.058079999999999909e-01 1.319255999999999984e+00 1.542834000000000039e+00 -2.129280000000000062e+00 2.085176000000000140e+00 -1.826459000000000055e+00 -3.599568000000000101e+00 -1.478369000000000044e+00 -1.427813999999999917e+00 1.150798999999999905e+00 -1.011873999999999940e+00 5.641800000000000287e-02 9.693159999999999554e-01 1.021481000000000083e+00 -1.289210000000000078e-01 1.461273999999999962e+00 1.254693000000000058e+00 2.666293000000000024e+00 -3.082980000000000165e-01 1.471678999999999959e+00 -2.711946999999999885e+00 3.671249999999999791e-01 1.239648000000000083e+00 -1.251140000000000030e-01 1.783339999999999925e+00 -1.678091999999999917e+00 1.526929999999999954e-01 -4.721270000000000189e-01 1.235641999999999907e+00 1.802364000000000077e+00 -2.310979999999999979e-01 1.076683000000000057e+00 3.827619999999999911e-01
4.350820000000000243e-01 2.196785999999999905e+00 8.367550000000000265e-01 -1.461535999999999946e+00 9.622089999999999810e-01 -3.484999999999999765e-01 4.514699999999999963e-02 -6.402170000000000361e-01 9.794190000000000396e-01 -2.283535000000000093e+00 7.591510000000000202e-01 1.789419000000000093e+00 -4.457030000000000158e-01 -1.184642999999999891e+00 -5.811260000000000314e-01 -1.817300000000000165e-02 -5.492399999999999505e-01 -2.040909999999999946e-01 -9.453160000000000451e-01 -1.059200000000000003e-01 -5.063520000000000243e-01 6.603989999999999583e-01 5.742099999999999982e-02 -1.426746999999999987e+00 1.068165999999999949e+00 -1.404990000000000128e-01 7.490560000000000551e-01 -7.065040000000000209e-01 1.131348000000000020e+00 -1.546999999999999938e-02 -4.367469999999999963e-01 -1.669456000000000051e+00 -2.738550000000000151e-01 6.546899999999999942e-01 -1.219494000000000078e+00 -8.778979999999999562e-01 5.635769999999999946e-01 -5.487500000000000017e-02 7.259769999999999834e-01 1.452534999999999910e+00 1.159254000000000007e+00 1.989430000000000087e-01 1.179362999999999939e+00 4.677689999999999904e-01 -1.581455000000000055e+00 1.263133999999999979e+00 -3.547299999999999759e-02 -2.049559999999999993e-01 -8.226390000000000091e-01 9.979639999999999622e-01 1.537549999999999972e+00 -2.386830000000000063e-01 -2.724030000000000062e-01 -2.164089999999999903e-01 1.708955000000000002e+00 -1.863083000000000045e+00 -6.343980000000000175e-01 -3.827769999999999784e-01 1.855326999999999948e+00 -9.341760000000000064e-01 -8.785290000000000044e-01 -9.329760000000000275e-01 3.123489999999999878e-01 1.430736999999999925e+00 -7.778110000000000301e-01 -3.352890000000000037e-01 -8.225099999999999634e-01 5.264450000000000518e-01 -2.249529999999999863e-01 -9.932440000000000158e-01 -5.901619999999999644e-01 1.719222000000000028e+00 -2.415259999999999907e-01 2.452357999999999816e+00 2.160517000000000021e+00 1.457943999999999907e+00 -1.175003999999999937e+00 -2.235942999999999792e+00 -1.474949999999999872e-01 -8.200150000000000494e-01 -3.937959999999999794e-01 -8.259889999999999732e-01 -1.189572999999999992e+00 8.763210000000000166e-01 7.811949999999999728e-01 -1.432946000000000053e+00 -7.890270000000000339e-01 9.670079999999999787e-01 -3.975399999999999767e-02 1.863940000000000041e-01 -2.628099999999999881e-02 1.617260000000000086e-01 1.215269999999999961e-01 -7.664360000000000062e-01 1.188360000000000083e+00 2.077440000000000120e-01 6.310740000000000238e-01 -2.586180000000000145e-01 6.687729999999999508e-01 -1.076384000000000007e+00 6.409550000000000525e-01 5.404820000000000180e-01 -7.789979999999999682e-01 3.950910000000000255e-01 -1.826008000000000076e+00
5.099999999999999960e-05 -1.230000000000000082e-04 5.339999999999999695e-04 -5.300000000000000078e-05 2.010000000000000068e-04 1.610000000000000103e-04 1.440000000000000036e-04 -5.199999999999999680e-05 -1.600000000000000131e-04 9.000000000000000228e-06 5.770000000000000389e-04 3.110000000000000243e-04 6.999999999999999895e-06 -1.299999999999999920e-05 -1.740000000000000010e-04 -1.129999999999999955e-04 3.330000000000000169e-04 -3.519999999999999908e-04 -1.000000000000000082e-05 -2.090000000000000115e-04 -1.100000000000000039e-04 -8.600000000000000331e-05 1.969999999999999909e-04 -2.199999999999999943e-05 2.199999999999999943e-05 2.400000000000000061e-05 -3.499999999999999693e-05 -5.779999999999999548e-04 -1.000000000000000082e-05 9.999999999999999547e-07 -1.510000000000000112e-04 -7.999999999999999638e-06 1.399999999999999979e-05 2.199999999999999943e-05 -9.399999999999999448e-05 -1.499999999999999869e-04 -6.999999999999999895e-06 -1.710000000000000094e-04 -1.499999999999999869e-04 -1.859999999999999945e-04 -1.649999999999999991e-04 6.999999999999999895e-06 -6.999999999999999895e-06 -2.480000000000000108e-04 -6.399999999999999710e-05 -1.129999999999999955e-04 -1.830000000000000029e-04 -1.039999999999999936e-04 -5.400000000000000069e-04 2.869999999999999830e-04 1.879999999999999890e-04 3.199999999999999855e-05 3.460000000000000076e-04 -2.900000000000000017e-05 8.360000000000000460e-04 1.150000000000000035e-04 3.429999999999999889e-04 -2.190000000000000106e-04 4.000000000000000327e-05 3.800000000000000209e-05 2.210000000000000050e-04 -4.749999999999999990e-04 -2.709999999999999735e-04 -7.999999999999999638e-06 -8.299999999999999815e-05 1.649999999999999991e-04 1.689999999999999879e-04 1.000000000000000082e-05 2.990000000000000036e-04 -1.500000000000000038e-05 6.099999999999999872e-05 2.900000000000000017e-05 6.489999999999999459e-04 -4.260000000000000006e-04 -1.779999999999999898e-04 9.700000000000000505e-04 3.989999999999999949e-04 -2.300000000000000002e-05 -2.840000000000000185e-04 1.849999999999999973e-04 1.269999999999999970e-04 -1.530000000000000056e-04 1.029999999999999964e-04 -1.299999999999999920e-05 2.640000000000000202e-04 -8.600000000000000331e-05 1.599999999999999928e-05 -1.550000000000000000e-04 -7.999999999999999638e-06 6.700000000000000226e-05 2.799999999999999958e-05 -1.379999999999999933e-04 -2.349999999999999930e-04 -1.579999999999999916e-04 2.429999999999999977e-04 1.000000000000000048e-04 3.699999999999999811e-05 -3.980000000000000248e-04 -1.579999999999999916e-04 -3.939999999999999817e-04 -1.800000000000000113e-04 -1.520000000000000084e-04 -2.320000000000000014e-04 -5.199999999999999680e-05 -2.000000000000000164e-05