-1.755063999999999957e+00 -1.211509999999999948e-01 7.824299999999999311e-02 8.034810000000000008e-01 -1.244043000000000010e+00 5.213729999999999754e-01 1.099032000000000009e+00 5.249000000000000193e-02 5.153699999999999948e-01 7.022089999999999721e-01 4.265700000000000047e-02 1.493929999999999980e+00 5.070729000000000042e+00 1.493627000000000038e+00 1.732693999999999956e+00 -1.803382999999999958e+00 -1.210126999999999953e+00 -3.452800000000000313e-02 1.785879999999999967e-01 1.117202000000000028e+00 2.918680000000000163e-01 -2.276397999999999922e+00 1.053377999999999926e+00 -1.626943999999999946e+00 6.924569999999999892e-01 1.401140000000000052e+00 -5.964360000000000106e+00 -1.549693999999999905e+00 3.076699999999999921e-02 1.291835999999999984e+00 2.418454000000000104e+00 -6.424499999999999655e-02 2.870150000000000201e-01 -1.291636000000000006e+00 1.051109999999999961e-01 5.189070000000000071e-01 -1.349889999999999979e-01 -1.546477000000000102e+00 1.423100999999999949e+00 2.246062999999999921e+00 7.712970000000000104e-01 1.360079999999999956e+00 -5.617349999999999843e-01 -9.871290000000000342e-01 -3.701614000000000182e+00 -9.686660000000000270e-01 1.636662999999999979e+00 -6.285730000000000484e-01 -2.403922999999999810e+00 -8.667209999999999637e-01 -5.166190000000000504e-01 -1.527439999999999909e-01 -1.994900000000000145e-02 -6.661400000000000654e-02 -9.659010000000000096e-01 -1.063809000000000005e+00 1.324299999999999956e-02 -1.532360000000000111e-01 9.027290000000000036e-01 -1.576778999999999931e+00 5.981670000000000043e-01 2.315986000000000100e+00 -9.554639999999999800e-01 2.745839999999999947e-01 1.132004000000000010e+00 2.159015000000000128e+00 -2.466500000000000081e-01 -4.183379999999999876e-01 -1.979411000000000032e+00 -6.561169999999999725e+00 -1.459000000000000075e+00 -1.048866000000000076e+00 1.241643000000000052e+00 9.209260000000000224e-01 -4.672490000000000254e-01 2.958845999999999865e+00 -1.711074999999999902e+00 4.062451000000000256e+00 1.210793000000000008e+00 -1.071436000000000055e+00 -2.184730000000000005e-01 1.220500000000000057e-02 -1.357914999999999983e+00 3.513307999999999875e+00 -3.503900000000000070e-02 -1.050955000000000084e+00 2.356612999999999847e+00 -1.007484999999999964e+00 1.353204999999999991e+00 -1.907068999999999903e+00 -4.178270000000000040e-01 -2.186730000000000063e-01 -7.965830000000000410e-01 3.916599999999999943e-02 5.688440000000000163e-01 2.329499999999999904e+00 6.483100000000000529e-01 -2.344569999999999987e-01 -2.332009000000000221e+00 2.619399999999999853e-02 -1.167092000000000018e+00 -2.561769999999999881e-01 -2.129220000000000002e-01 5.770809999999999551e-01 -6.422999999999999543e-02 3.541119999999999823e-01 -1.313199999999999923e-01 2.753450000000000064e-01 1.923430999999999891e+00 4.688069999999999737e-01 -8.232899999999999940e-02
-1.291473000000000093e+00 -7.881930000000000325e-01 -4.466829999999999967e-01 1.687120000000000009e-01 4.981019999999999892e-01 -5.693589999999999485e-01 1.285666999999999893e+00 -5.046599999999999975e-01 -4.527140000000000053e-01 3.404070000000000151e-01 1.198785999999999907e+00 1.120160000000000045e-01 1.694599999999999995e-01 1.190839999999999899e+00 2.180660000000000098e-01 -1.055311000000000110e+00 3.237519999999999842e-01 -8.067699999999999871e-02 6.278369999999999784e-01 -2.819439999999999724e-01 -3.784879999999999911e-01 3.513299999999999756e-02 -2.999129999999999852e-01 -5.809309999999999752e-01 1.573412999999999951e+00 -2.177860000000000074e-01 1.397696000000000049e+00 1.967790000000000095e-01 5.164400000000000240e-02 -2.308020000000000072e-01 1.388727000000000045e+00 5.634280000000000399e-01 -4.891449999999999965e-01 -8.165050000000000363e-01 -6.471599999999999575e-01 -3.624550000000000272e-01 2.399783999999999917e+00 2.213340000000000030e-01 8.923999999999999988e-02 -1.637486999999999915e+00 1.958633000000000068e+00 7.391919999999999602e-01 -2.239999999999999977e-02 -5.522559999999999691e-01 4.726130000000000053e-01 -5.743179999999999952e-01 -4.471459999999999879e-01 7.490839999999999721e-01 4.648639999999999994e-01 -1.655607000000000051e+00 7.738610000000000211e-01 -1.038345000000000073e+00 4.357699999999999768e-02 -2.195727999999999902e+00 6.994050000000000544e-01 4.029739999999999989e-01 2.573010000000000019e-01 2.112640000000000073e-01 8.864499999999999602e-01 1.418285999999999936e+00 -1.498574000000000073e+00 -6.960009999999999808e-01 -3.312550000000000217e-01 1.330931000000000086e+00 3.654780000000000251e-01 1.049565999999999999e+00 -1.422784000000000049e+00 -1.892665000000000042e+00 -7.749009999999999510e-01 4.685830000000000273e-01 -4.526999999999999913e-01 -2.430569999999999953e-01 2.111511000000000138e+00 3.767730000000000246e-01 -1.152964000000000100e+00 7.084589999999999499e-01 -1.160951000000000066e+00 5.563669999999999449e-01 9.729379999999999695e-01 6.788399999999999990e-01 6.797670000000000101e-01 -1.805657000000000068e+00 -8.722900000000000098e-02 -6.022729999999999473e-01 9.011850000000000138e-01 1.338459000000000065e+00 1.389745999999999926e+00 -6.480089999999999462e-01 1.668083999999999900e+00 -1.375736999999999988e+00 -8.319149999999999601e-01 -9.289570000000000327e-01 1.504129999999999912e-01 -8.620300000000000185e-02 3.182630000000000181e-01 8.704699999999999938e-02 -1.578519000000000005e+00 -1.835537999999999892e+00 -1.311576000000000075e+00 2.250890000000000113e-01 -8.144339999999999913e-01 -9.857599999999999696e-02 -1.819061000000000039e+00 -4.535129999999999995e-01 1.647124000000000033e+00 -7.238719999999999599e-01 -2.361630000000000118e-01 1.732829999999999926e-01 5.702859999999999596e-01 1.867399000000000031e+00 -2.833439999999999848e-01
-2.375360000000000138e+00 3.793019999999999725e-01 -1.836961999999999984e+00 -7.303140000000000187e-01 1.828200000000000103e-01 -1.461832000000000020e+00 5.301960000000000006e-01 4.987500000000000266e-01 1.580888999999999989e+00 -3.057239999999999958e-01 7.600890000000000146e-01 3.634939999999999838e-01 -1.997649999999999981e-01 -1.803007000000000026e+00 -4.613849999999999896e-01 -4.407710000000000239e-01 -9.425339999999999829e-01 -4.871019999999999794e-01 -3.120809999999999973e-01 8.845200000000000284e-02 6.099029999999999729e-01 3.283599999999999713e-02 1.213937000000000044e+00 1.573973999999999984e+00 7.136989999999999723e-01 8.532349999999999657e-01 1.141651999999999889e+00 1.215074999999999905e+00 -3.656630000000000158e-01 9.347499999999999698e-01 3.540280000000000094e-01 1.237443999999999988e+00 -1.050910000000000011e+00 -7.973949999999999649e-01 2.166430000000000022e-01 3.952180000000000137e-01 1.295406999999999975e+00 1.138409999999999922e+00 -3.736070000000000224e-01 -1.982769999999999921e+00 9.985849999999999449e-01 -7.225000000000000311e-01 7.818669999999999787e-01 1.791030000000000122e-01 1.972399999999999987e-01 -2.420700000000000074e-01 -1.878430000000000044e+00 2.389000000000000151e-02 -9.146220000000000461e-01 9.462800000000000378e-02 -3.285969999999999724e-01 5.242799999999999683e-01 2.276449999999999863e-01 2.978799999999999781e-01 -1.990723999999999938e+00 2.255116999999999816e+00 1.937521999999999966e+00 4.145090000000000163e-01 9.213799999999999768e-02 -1.197306999999999899e+00 -1.282059999999999866e-01 2.961039999999999783e-01 1.745902000000000065e+00 -1.171969999999999956e-01 -3.277999999999999803e-01 3.935029999999999917e-01 1.917087999999999903e+00 -1.479379999999999862e-01 6.692730000000000068e-01 3.255339999999999900e-01 -1.463691000000000075e+00 -4.289370000000000127e-01 -1.258448999999999929e+00 1.602435000000000054e+00 -1.495733999999999897e+00 -8.805239999999999734e-01 -1.260323000000000082e+00 2.747749999999999915e-01 -2.003124999999999822e+00 2.311229999999999951e-01 -4.990359999999999796e-01 -3.120299999999999740e-01 -1.591800000000000159e-02 -8.920489999999999808e-01 9.731549999999999923e-01 1.673745999999999956e+00 -1.519576999999999956e+00 -4.133140000000000147e-01 -3.764449999999999741e-01 1.276500000000000135e-01 7.082039999999999447e-01 -7.559299999999999908e-01 -4.809260000000000201e-01 -1.017799999999999955e-01 -5.790669999999999984e-01 -6.439780000000000504e-01 2.476679999999999993e+00 -1.457270999999999983e+00 1.164732000000000101e+00 -2.774420000000000219e-01 -1.321914999999999951e+00 3.150780000000000247e-01 -2.636729999999999907e-01 1.703639999999999877e-01 1.297389999999999932e-01 2.396031999999999940e+00 -1.582862999999999909e+00 2.655279999999999863e-01 1.388746999999999954e+00 -1.112749999999999989e-01 -2.621560000000000001e-01
-4.305189999999999850e-01 6.929200000000000637e-02 1.478609999999999924e-01 4.356829999999999870e-01 -1.743300000000000127e-01 -4.299609999999999821e-01 1.048820000000000030e-01 3.497200000000000308e-02 5.675919999999999854e-01 4.255559999999999898e-01 -9.880999999999999506e-02 6.632399999999999407e-02 3.314480000000000204e-01 -5.385090000000000154e-01 6.008050000000000335e-01 -2.509600000000000164e-01 2.650529999999999831e-01 -1.834699999999999873e-02 3.376600000000000157e-01 1.989410000000000067e-01 -1.806020000000000125e-01 -2.379459999999999908e-01 3.814100000000000129e-02 -1.224800000000000055e-01 8.473500000000000476e-02 -1.655590000000000117e-01 -1.923060000000000047e-01 3.270779999999999799e-01 -1.876269999999999882e-01 -5.101830000000000531e-01 -5.746719999999999606e-01 -5.892190000000000483e-01 -4.972599999999999937e-02 -2.680370000000000252e-01 8.405500000000000471e-02 -1.287689999999999946e-01 -4.787100000000000244e-01 -3.816769999999999885e-01 1.324899999999999967e-01 7.278160000000000185e-01 8.320319999999999938e-01 4.319800000000000029e-02 -2.023760000000000003e-01 -1.038769999999999971e-01 2.424270000000000036e-01 -3.348229999999999817e-01 1.111820000000000030e-01 3.807499999999999774e-02 -2.786170000000000035e-01 1.030670000000000058e-01 -8.865900000000000170e-02 2.110539999999999916e-01 1.130749999999999950e-01 -7.163500000000000423e-02 -4.852739999999999831e-01 1.892169999999999963e-01 1.407742999999999967e+00 -1.418649999999999911e-01 -3.422660000000000147e-01 2.336620000000000086e-01 -3.652520000000000211e-01 -3.961450000000000249e-01 -1.039289999999999936e-01 1.572290000000000076e-01 3.210489999999999733e-01 -8.860200000000000020e-02 3.781769999999999854e-01 4.950999999999999672e-03 1.941500000000000170e-02 -5.470390000000000530e-01 2.614839999999999942e-01 5.439669999999999783e-01 -2.632999999999999785e-01 -1.668409999999999893e-01 -1.374835999999999947e+00 1.329970000000000041e-01 3.997660000000000102e-01 6.599289999999999878e-01 -2.453140000000000043e-01 1.107958999999999916e+00 -4.606910000000000172e-01 -2.999240000000000239e-01 1.104440000000000005e-01 4.145289999999999808e-01 1.388499999999999977e-02 -3.562779999999999836e-01 -2.111480000000000024e-01 2.051779999999999993e-01 -2.233950000000000102e-01 6.378120000000000456e-01 2.209949999999999970e-01 2.558079999999999798e-01 -3.502560000000000118e-01 -8.028000000000000413e-03 1.640409999999999924e-01 1.059110000000000051e-01 7.949899999999999745e-01 -1.989879999999999982e-01 -2.270290000000000086e-01 -7.555399999999999616e-02 -3.576500000000000234e-01 -6.318690000000000140e-01 -1.990339999999999887e-01 2.927080000000000237e-01 4.984999999999999848e-03 5.283339999999999703e-01 -7.677659999999999485e-01 -4.426039999999999974e-01 2.695469999999999811e-01 9.170000000000000373e-02 -1.830970000000000097e-01
1.299320000000000030e+00 -2.826679999999999748e-01 4.229479999999999906e-01 -3.083350000000000257e-01 -6.453330000000000455e-01 -1.205696000000000101e+00 -5.865719999999999823e-01 1.578318000000000110e+00 1.238345999999999947e+00 -1.361834999999999907e+00 3.525079999999999880e-01 2.208100000000000063e-01 1.259127000000000107e+00 1.528491000000000044e+00 1.485100000000000031e-01 5.325360000000000094e-01 -2.320129999999999970e-01 -7.913670000000000426e-01 7.973710000000000520e-01 6.385819999999999830e-01 -1.701356000000000090e+00 1.644001000000000046e+00 -1.687490000000000101e-01 3.572469999999999812e-01 -8.692339999999999511e-01 -3.848559999999999759e-01 3.889600000000000002e-02 5.943279999999999674e-01 1.754504000000000064e+00 2.284249999999999892e-01 2.050743000000000205e+00 2.542099999999999915e-01 6.554720000000000546e-01 1.492882999999999960e+00 -1.765690000000000037e-01 -1.231940000000000035e+00 3.998149999999999760e-01 -1.383540000000000048e-01 3.003979999999999984e-01 -1.768599999999999894e-01 -1.095958999999999905e+00 7.255150000000000210e-01 1.565660000000000107e-01 -4.774142999999999581e+00 2.003716999999999970e+00 9.050369999999999804e-01 5.502089999999999481e-01 -1.710770000000000068e-01 -1.584875000000000034e+00 1.770407999999999982e+00 -7.956760000000000499e-01 1.163202000000000069e+00 1.747109999999999941e+00 3.969920000000000115e-01 3.421919999999999962e-01 -1.983400000000000094e-02 -6.799299999999999788e-02 1.019066000000000027e+00 -2.313391999999999893e+00 6.467299999999999438e-02 -1.086486000000000063e+00 1.102505000000000068e+00 -2.784590000000000121e-01 -5.127739999999999521e-01 -4.497530000000000139e-01 -5.035880000000000356e-01 5.952899999999999858e-01 -9.419229999999999547e-01 3.251699999999999730e-02 7.532440000000000246e-01 -1.268324999999999925e+00 -4.126580000000000248e-01 2.025460999999999956e+00 5.192259999999999653e-01 4.177509999999999835e-01 1.364579999999999960e-01 -4.442070000000000185e-01 2.290503000000000178e+00 2.036090000000000122e-01 -2.282007000000000119e+00 -2.398728000000000193e+00 -6.653440000000000465e-01 -1.624276999999999971e+00 8.807570000000000121e-01 -3.533215999999999912e+00 -5.495560000000000445e-01 -1.226283999999999930e+00 -1.331456999999999891e+00 2.491369999999999973e-01 4.050949999999999829e-01 1.523492000000000068e+00 1.952919999999999934e-01 -3.199850000000000194e-01 3.430469999999999908e-01 -1.441773999999999889e+00 -3.056860000000000133e-01 -2.460385000000000044e+00 -3.980210000000000137e-01 5.922359999999999847e-01 -2.748924999999999841e+00 3.231390000000000096e-01 1.221722999999999892e+00 8.462899999999999590e-02 2.703840000000000021e+00 5.229399999999999604e-01 -9.846329999999999805e-01 1.080969000000000069e+00 -1.488359999999999905e+00 -1.110486000000000084e+00 3.283268000000000075e+00 -2.666160000000000196e-01
-2.302829999999999877e-01 -8.036699999999999400e-02 3.659500000000000253e-02 1.835950000000000082e-01 -1.771800000000000042e-01 -4.422180000000000000e-01 -3.732909999999999839e-01 2.748300000000000048e-02 1.372760000000000091e-01 3.281279999999999752e-01 1.037460000000000049e-01 -6.531199999999999506e-02 2.759320000000000106e-01 5.138730000000000242e-01 -5.249930000000000430e-01 1.284150000000000014e-01 9.876999999999999669e-02 5.247840000000000282e-01 2.749759999999999982e-01 2.862239999999999784e-01 -1.407690000000000052e-01 5.125099999999999795e-02 1.293360000000000065e-01 5.009590000000000432e-01 -2.928700000000000053e-02 1.521460000000000035e-01 -8.720400000000000373e-02 5.201800000000000174e-02 2.240709999999999924e-01 1.657369999999999954e-01 1.341469999999999885e-01 -3.832590000000000163e-01 -6.130499999999999838e-02 2.239659999999999984e-01 -2.098970000000000002e-01 2.967609999999999970e-01 -3.310190000000000077e-01 -2.865480000000000249e-01 -3.314600000000000185e-02 -2.753900000000000237e-01 2.384860000000000035e-01 1.855469999999999897e-01 -4.928000000000000089e-03 2.837959999999999927e-01 2.293219999999999981e-01 -4.920080000000000009e-01 3.544039999999999968e-01 4.141420000000000101e-01 7.292899999999999383e-02 3.292199999999999988e-02 3.699990000000000223e-01 -3.279200000000000170e-02 2.818289999999999962e-01 -6.164100000000000135e-02 6.667710000000000026e-01 -2.874320000000000208e-01 9.067549999999999777e-01 3.698960000000000026e-01 -1.090535999999999950e+00 -7.658900000000000430e-02 3.351810000000000067e-01 -7.183499999999999608e-02 -1.199270000000000058e-01 1.258529999999999927e-01 6.756849999999999801e-01 2.650870000000000171e-01 9.525599999999999346e-02 1.537999999999999957e-02 -4.309580000000000077e-01 -1.277060000000000084e+00 -5.405100000000000182e-02 -1.063749999999999973e-01 2.715099999999999736e-01 -3.250319999999999876e-01 -2.105640000000000012e-01 -6.770400000000000029e-02 -1.164379999999999998e-01 5.249580000000000357e-01 -6.631299999999999695e-02 -2.015499999999999931e-02 -7.301199999999999912e-01 -1.203940000000000010e-01 8.385700000000000098e-02 -3.753219999999999890e-01 1.182399999999999979e-01 -3.058339999999999947e-01 -4.865360000000000240e-01 -4.667180000000000217e-01 -1.115160000000000040e-01 2.234879999999999922e-01 -2.511539999999999884e-01 1.819300000000000084e-01 1.161120000000000069e-01 -5.473230000000000040e-01 2.093460000000000043e-01 -2.966099999999999848e-01 6.642179999999999751e-01 5.986270000000000202e-01 3.633230000000000071e-01 -1.438349999999999906e-01 -4.900100000000000011e-01 -6.000229999999999730e-01 3.784699999999999870e-02 2.153029999999999944e-01 3.097309999999999786e-01 3.777400000000000202e-02 -5.654820000000000402e-01 -4.441080000000000028e-01 2.615970000000000240e-01 -1.316420000000000090e-01 -2.768539999999999890e-01
-9.519600000000000284e-01 -2.484999999999999796e-03 -1.753929000000000071e+00 7.930300000000000127e-01 2.096143999999999785e+00 1.224318000000000017e+00 -1.557833000000000023e+00 4.537379999999999747e-01 1.024650000000000005e-01 -7.510529999999999706e-01 1.579798999999999953e+00 1.640365000000000073e+00 1.122760999999999898e+00 -1.475940999999999947e+00 -1.043954999999999966e+00 2.608389999999999875e-01 -6.089780000000000193e-01 -9.492000000000000437e-01 -1.585831999999999908e+00 9.933419999999999472e-01 -1.267452000000000023e+00 -2.537459000000000131e+00 -9.725909999999999833e-01 -2.278900000000000092e-01 -4.706620000000000248e-01 -2.398744999999999905e+00 2.034288999999999792e+00 1.906933999999999907e+00 6.006359999999999477e-01 1.839540000000000064e-01 -2.127313000000000009e+00 -1.526658000000000071e+00 1.877132999999999940e+00 -1.775499999999999995e-02 -1.683276999999999912e+00 1.350959999999999939e+00 -4.455439999999999956e-01 -9.737029999999999852e-01 1.264540999999999915e+00 6.857809999999999739e-01 -1.756018000000000079e+00 -1.208754000000000106e+00 -7.099339999999999540e-01 1.630513000000000101e+00 -1.337892999999999999e+00 -1.415861000000000036e+00 -2.316481000000000012e+00 2.603448999999999902e+00 -6.607490000000000308e-01 -1.803647999999999918e+00 -2.042876000000000136e+00 6.989419999999999522e-01 -8.786399999999999766e-02 -2.341999999999999898e-03 4.927560000000000273e-01 -2.153291999999999984e+00 -3.139529999999999821e-01 2.717470000000000163e-01 -9.275459999999999816e-01 6.905299999999999772e-01 3.021222999999999992e+00 -3.134120999999999935e+00 6.565609999999999502e-01 1.027989999999999959e+00 1.069760999999999962e+00 -4.807910000000000239e-01 1.168266000000000027e+00 -1.834718999999999989e+00 6.482550000000000257e-01 -3.461615999999999804e+00 -2.747978999999999949e+00 -1.534666000000000086e+00 1.524777000000000049e+00 4.147179999999999755e-01 3.077291999999999916e+00 3.019200999999999802e+00 -9.159490000000000132e-01 -1.137726000000000015e+00 6.545060000000000322e-01 5.919737999999999722e+00 -1.195300000000000008e-02 1.455214999999999925e+00 -2.618659999999999877e-01 -1.801778000000000102e+00 -2.000325999999999826e+00 1.377537999999999929e+00 -1.901977000000000029e+00 1.440722000000000058e+00 1.344838999999999896e+00 -5.439599999999999991e-01 -3.711530000000000107e-01 -5.037200000000000011e-02 -9.800860000000000127e-01 1.040780000000000038e+00 2.986590000000000078e-01 7.747929999999999540e-01 -1.298960000000000115e-01 3.471041000000000043e+00 -1.139799000000000007e+00 -1.546964000000000006e+00 7.809279999999999555e-01 2.187422999999999895e+00 -4.700529999999999986e-01 9.546320000000000361e-01 -1.624467000000000105e+00 -1.597669999999999924e-01 4.880391999999999619e+00 -1.580861000000000072e+00 7.862590000000000412e-01 -2.341880000000000073e-01 2.569979000000000013e+00
-7.119769999999999710e-01 6.019780000000000131e-01 -7.508420000000000094e-01 1.560237000000000096e+00 3.083159000000000205e+00 5.502699999999999952e-02 2.045017000000000085e+00 2.368857000000000212e+00 9.763889999999999514e-01 -4.132270000000000110e-01 -1.206793000000000005e+00 1.905899999999999955e-02 3.871820000000000261e-01 -1.277630000000000043e+00 4.724199999999999927e-02 1.797301000000000037e+00 -5.714899999999999841e-02 1.027610000000000051e-01 1.857236000000000109e+00 -1.445369999999999988e-01 5.941140000000000310e-01 -1.235041000000000055e+00 1.098260999999999932e+00 1.842921999999999949e+00 2.420019999999999949e-01 2.363300000000000123e-02 -4.398790000000000200e-01 6.901100000000000290e-02 9.283829999999999583e-01 1.271279999999999910e-01 -2.920090000000000185e-01 9.839599999999999735e-02 4.068220000000000169e-01 1.691043999999999992e+00 1.252999999999999947e-02 8.474900000000000488e-02 -1.117963000000000040e+00 -9.800299999999999567e-01 5.598250000000000171e-01 -9.629079999999999862e-01 -1.516624999999999890e+00 -1.296249999999999902e+00 7.992099999999999760e-01 -5.644019999999999593e-01 1.620487999999999928e+00 5.427900000000000086e-02 -1.225864000000000065e+00 -9.660760000000000458e-01 -1.011069999999999913e+00 1.963519999999999988e-01 -2.439900000000000124e-01 4.065929999999999822e-01 -3.158907999999999827e+00 2.563099999999999823e-01 5.452050000000000507e-01 -1.412193999999999949e+00 -2.787354999999999805e+00 -1.937993000000000077e+00 2.152242999999999906e+00 1.792273999999999923e+00 -2.773435999999999790e+00 -1.911038000000000014e+00 -1.749848999999999988e+00 -3.004569000000000045e+00 -2.347897000000000123e+00 -8.597999999999999740e-03 -9.521650000000000391e-01 -3.579120000000000079e-01 1.867833999999999994e+00 -5.597579999999999778e-01 1.291215000000000002e+00 -4.086000000000000049e-02 -1.217141000000000028e+00 -2.122053000000000189e+00 1.710070999999999897e+00 6.905139999999999612e-01 4.123470000000000191e-01 4.075779999999999959e-01 -6.313809999999999700e-01 2.027474999999999916e+00 -1.257722999999999924e+00 1.699521000000000059e+00 2.236723000000000017e+00 -2.024859999999999993e-01 3.388071000000000055e+00 1.238777999999999935e+00 -2.066709999999999936e-01 4.426329999999999987e-01 -5.036760000000000126e-01 -1.288032000000000066e+00 -8.554690000000000349e-01 2.635479999999999823e+00 9.915819999999999634e-01 -5.747309999999999919e-01 -1.047193999999999958e+00 -8.206179999999999586e-01 1.329710000000000059e-01 -2.296110000000000095e-01 -1.967019999999999880e-01 -1.017520999999999898e+00 9.085649999999999560e-01 -3.753999999999999958e-03 -8.662800000000000500e-01 -1.929718000000000044e+00 -6.060950000000000504e-01 1.552068000000000003e+00 -4.405490000000000239e-01 -1.177961999999999954e+00 7.745429999999999815e-01 1.119404999999999983e+00 5.815649999999999986e-01
-1.217020999999999908e+00 9.255189999999999806e-01 2.377759999999999874e-01 5.388410000000000144e-01 2.843281000000000169e+00 2.275851999999999986e+00 2.206084999999999852e+00 1.011397000000000101e+00 5.387279999999999847e-01 -3.941089999999999871e-01 -1.853600000000000039e-02 -2.193306999999999896e+00 1.102524000000000060e+00 -7.372619999999999729e-01 -3.994028999999999829e+00 1.493589999999999918e-01 -8.517080000000000206e-01 5.195070000000000521e-01 -1.333300000000000041e-01 -4.943620000000000236e-01 9.229039999999999466e-01 6.528000000000000469e-02 -3.154910000000000214e-01 1.413810000000000011e+00 -4.953929999999999723e-01 -1.267630999999999952e+00 5.429389999999999494e-01 1.219686000000000048e+00 8.653450000000000308e-01 -2.677967000000000208e+00 -1.061851000000000100e+00 3.127800000000000025e-02 -1.487697999999999965e+00 9.913140000000000285e-01 1.253999999999999906e-03 1.616659999999999986e+00 -4.594900000000000095e-01 -6.803040000000000198e-01 2.953709999999999947e-01 6.052349999999999675e-01 1.751244999999999941e+00 -2.183374000000000148e+00 2.076442000000000121e+00 -2.742354000000000180e+00 2.946165999999999840e+00 2.390226000000000184e+00 1.004402999999999935e+00 1.655189999999999995e-01 -3.716979999999999729e-01 3.161100000000000021e-01 1.042486000000000024e+00 1.183353000000000099e+00 -2.992173999999999889e+00 2.833120000000000083e-01 -8.300790000000000113e-01 -4.589920000000000111e-01 -6.446549999999999780e-01 -1.065865000000000062e+00 -8.085229999999999917e-01 8.454930000000000501e-01 -1.326208000000000053e+00 7.306719999999999882e-01 6.227580000000000338e-01 -6.858849999999999669e-01 -2.663479999999999737e-01 -1.187013000000000096e+00 7.267559999999999576e-01 3.463942999999999994e+00 -2.026360000000000106e-01 -3.361629999999999896e-01 -1.244075000000000042e+00 1.237095999999999973e+00 -6.545379999999999532e-01 5.512489999999999890e-01 2.941650000000000098e-01 -1.394770000000000065e+00 -2.907839999999999869e-01 6.985909999999999620e-01 7.524030000000000440e-01 -4.585389999999999744e-01 -7.220760000000000511e-01 4.092129999999999934e-01 7.194450000000000012e-01 4.156429999999999847e-01 1.090006999999999948e+00 -4.142057000000000322e+00 -9.520939999999999959e-01 1.407677999999999985e+00 -1.552554999999999907e+00 8.049260000000000304e-01 -1.094001999999999919e+00 -2.948470000000000257e-01 5.736599999999999477e-01 -1.115784000000000109e+00 1.559145000000000003e+00 -7.430569999999999675e-01 -6.469530000000000003e-01 2.209283999999999804e+00 4.135440000000000227e-01 -1.320294000000000079e+00 7.446500000000000341e-02 1.258113999999999955e+00 -5.181320000000000370e-01 -5.668670000000000098e-01 -8.773260000000000502e-01 -6.624999999999999778e-01 3.916089999999999849e-01 2.353989999999999971e-01 -1.130336999999999925e+00 1.733765000000000001e+00 -2.335186999999999902e+00
-1.310310000000000086e-01 1.381780000000000008e+00 -9.203189999999999982e-01 -9.501530000000000253e-01 -1.395868000000000109e+00 -5.151820000000000288e-01 1.599472000000000005e+00 -1.129915999999999920e+00 -1.311263000000000067e+00 4.498920000000000141e-01 3.554669999999999774e-01 1.416900000000000048e+00 -4.404509999999999814e-01 1.125850000000000017e+00 4.612180000000000168e-01 -1.529099999999999904e-01 -1.115204000000000084e+00 9.894309999999999494e-01 -2.351357999999999837e+00 3.278570000000000095e-01 -2.877132000000000023e+00 1.171794000000000002e+00 -1.897883999999999904e+00 2.646835999999999967e+00 1.000191999999999970e+00 -1.466242000000000045e+00 -1.283315999999999901e+00 -3.967669999999999808e-01 1.212928999999999924e+00 -1.761290000000000078e-01 -7.135380000000000056e-01 1.450863000000000014e+00 1.523185000000000011e+00 4.231770000000000254e-01 7.335720000000000018e-01 -1.748580999999999941e+00 1.277359999999999884e-01 -2.483460000000000001e+00 1.968847000000000014e+00 1.599770000000000081e-01 -1.253905999999999965e+00 -1.212069999999999981e+00 1.076241999999999921e+00 -2.148341999999999974e+00 1.435799999999999965e+00 7.306340000000000057e-01 -2.082179999999999864e-01 2.607579999999999898e-01 -1.907135999999999942e+00 -9.297600000000000309e-02 4.188540000000000041e-01 1.738099000000000061e+00 1.544299000000000088e+00 4.874100000000000099e-01 5.620499999999999802e-02 -1.554967999999999906e+00 -1.336564000000000085e+00 4.732779999999999765e-01 1.148778000000000077e+00 1.860259000000000107e+00 1.818383000000000083e+00 7.326420000000000154e-01 -2.524398000000000142e+00 -4.217130000000000045e-01 1.677513000000000032e+00 1.066726999999999981e+00 8.202570000000000139e-01 -3.086550000000000127e-01 -5.710779999999999745e-01 -1.100973999999999897e+00 1.255995999999999890e+00 1.735460000000000003e+00 -1.864581999999999962e+00 6.299909999999999677e-01 1.646050000000000013e-01 1.034421999999999953e+00 -3.914020000000000277e-01 2.041769999999999974e-01 1.558017999999999903e+00 1.003489000000000075e+00 2.745629999999999793e+00 -2.245341999999999949e+00 1.997230000000000116e-01 -1.935437999999999992e+00 -4.700340000000000074e-01 1.663771000000000111e+00 -1.299978999999999996e+00 1.558769999999999878e-01 -1.601345999999999936e+00 8.373920000000000252e-01 1.465279999999999916e-01 -9.928780000000000383e-01 7.515570000000000306e-01 -2.594932000000000016e+00 -1.811026999999999942e+00 -4.834113000000000326e+00 8.087220000000000519e-01 -2.020180000000000031e-01 6.891310000000000491e-01 -1.106000000000000039e-02 1.186511000000000093e+00 2.627977000000000007e+00 9.157980000000000009e-01 7.690860000000000474e-01 -2.977862000000000009e+00 -6.789610000000000367e-01 1.251950000000000007e-01 1.877652000000000099e+00 1.662379999999999969e-01 1.528999999999999915e+00 -6.463820000000000121e-01