-2.644378788700000200e+02
-2.648193221299999891e+02
-2.641532958299999905e+02
-2.601480193200000031e+02
-2.616515039099999740e+02
-2.639823662000000013e+02
-2.612588569499999949e+02
-2.634307842299999720e+02
-2.668212382500000217e+02
-2.647461115599999744e+02
-2.648411727700000142e+02
-2.643246689299999730e+02
-2.632497953000000166e+02
-2.635704865199999745e+02
-2.628909345800000210e+02
-2.667911186200000202e+02
-2.619207300200000077e+02
-2.613555638099999783e+02
-2.599884214100000008e+02
-2.620266204399999879e+02
-2.648453269699999737e+02
-2.644972570799999971e+02
-2.640079498200000216e+02
-2.610409602299999960e+02
-2.604253657699999849e+02
-2.600050081699999964e+02
-2.611560785500000179e+02
-2.603318541599999776e+02
-2.666931281399999989e+02
-2.635909863800000039e+02
-2.616699517900000274e+02
-2.644696597700000211e+02
-2.645282089599999722e+02
-2.637496977499999957e+02
-2.625203338499999859e+02
-2.632717258299999799e+02
-2.648073903299999756e+02
-2.643113230700000145e+02
-2.604195519699999863e+02
-2.609359354499999881e+02
-2.630308713000000012e+02
-2.653396095800000012e+02
-2.597384873600000219e+02
-2.638776180099999920e+02
-2.601385902499999929e+02
-2.663089795899999785e+02
-2.642858095199999866e+02
-2.647770397200000048e+02
-2.638759709299999940e+02
-2.649615007900000023e+02
