4.521370000000000111e-01 2.075909999999999977e-01 8.690989999999999549e-01 -5.539969999999999617e-01 -4.076899999999999968e-01 -2.727282999999999902e+00 1.445891999999999955e+00 -1.421980000000000022e+00 -1.338445000000000107e+00 -6.000520000000000298e-01 -9.202399999999999469e-02 -8.214299999999999380e-02 5.991170000000000107e-01 2.149399999999999922e-02 1.999809999999999921e-01 -6.715699999999999448e-02 9.004159999999999942e-01 6.096650000000000125e-01 2.251193999999999917e+00 -1.061738000000000071e+00 1.190163000000000082e+00 -1.698326999999999920e+00 -9.277000000000000524e-02 -4.770150000000000223e-01 -7.521160000000000068e-01 -3.068199999999999816e-01 -1.572409999999999919e-01 4.345959999999999823e-01 -4.577410000000000090e-01 1.903596999999999984e+00 -1.796492999999999896e+00 1.254961999999999911e+00 1.036758000000000068e+00 3.332410000000000094e-01 -5.837400000000000228e-02 1.204579999999999984e+00 -4.757230000000000070e-01 6.057369999999999699e-01 5.186199999999999699e-01 -6.944479999999999542e-01 5.401829999999999687e-01 -9.390330000000000066e-01 2.028950000000000031e+00 -1.915384999999999893e+00 4.605700000000000072e-02 -3.811099999999999904e-02 -4.180539999999999812e-01 1.734789999999999943e-01 -5.977999999999999980e-02 -2.124890000000000112e-01 3.825613000000000152e+00 6.158989999999999743e-01 -8.568189999999999973e-01 8.730100000000000360e-02 -2.687109999999999776e-01 -1.814117999999999897e+00 -2.624477000000000171e+00 1.880233999999999961e+00 -4.443010000000000015e-01 3.323700000000000265e-02 3.929340000000000055e-01 7.352969999999999784e-01 -1.343485999999999958e+00 -2.391069999999999862e-01 7.776060000000000194e-01 1.969805000000000028e+00 1.073252000000000095e+00 4.399580000000000157e-01 2.068003000000000036e+00 -7.034970000000000390e-01 3.470840000000000036e-01 -9.615289999999999671e-01 3.764199999999999768e-01 3.687730000000000175e-01 7.648589999999999556e-01 2.999800000000000036e-02 -1.453079999999999927e-01 -1.493984999999999896e+00 -1.378719999999999946e-01 -2.549699999999999744e-01 -2.065339999999999954e-01 -3.523601000000000205e+00 1.165580000000000060e+00 8.601140000000000452e-01 1.688873000000000069e+00 1.311838000000000060e+00 -9.974169999999999980e-01 -7.056489999999999707e-01 2.958819999999999784e-01 -5.987329999999999597e-01 4.600699999999999790e-01 -5.273919999999999719e-01 -2.017958999999999836e+00 -1.029736999999999902e+00 9.147089999999999943e-01 -7.626960000000000406e-01 -7.184289999999999843e-01 6.008630000000000360e-01 -6.329540000000000166e-01
-1.278779999999999917e-01 -7.647559999999999913e-01 -4.875570000000000181e-01 -1.819840000000000069e-01 -1.066949999999999982e-01 -2.992564999999999920e+00 -1.057487000000000066e+00 1.174680000000000030e-01 -3.596099999999999991e-02 -7.511879999999999669e-01 8.829649999999999999e-01 5.968310000000000004e-01 1.391570999999999891e+00 4.677439999999999931e-01 -1.072470000000000034e+00 -7.846919999999999451e-01 1.426644000000000023e+00 -1.062540000000000012e-01 9.549609999999999488e-01 1.755599999999999938e-01 2.464684000000000097e+00 7.746400000000000508e-02 5.891229999999999523e-01 1.537506999999999957e+00 -2.155591999999999953e+00 -1.013352000000000031e+00 -2.321499999999999952e-01 8.098060000000000258e-01 2.269809999999999883e-01 5.910250000000000226e-01 3.770200000000000218e-01 -1.025457000000000063e+00 -2.858769999999999922e-01 4.111679999999999779e-01 2.377890000000000004e-01 -1.752769999999999884e-01 4.890550000000000175e-01 1.622760999999999898e+00 3.834620000000000251e-01 -2.476522999999999808e+00 8.828230000000000244e-01 -3.286970000000000169e-01 -6.114309999999999468e-01 1.322839000000000098e+00 7.684929999999999817e-01 -4.887600000000000278e-02 -5.062029999999999585e-01 1.620784000000000002e+00 -8.015170000000000350e-01 -9.858200000000000296e-01 1.446598000000000050e+00 -1.009217999999999948e+00 1.971152999999999933e+00 1.996509999999999951e-01 -2.029999999999999860e-02 -5.834700000000000442e-01 -1.958370000000000111e-01 4.190849999999999853e-01 6.673099999999999865e-02 8.552359999999999962e-01 -7.201200000000000656e-02 8.094980000000000508e-01 -5.549039999999999528e-01 1.972560000000000091e+00 -8.329980000000000162e-01 5.970480000000000231e-01 1.613256999999999941e+00 -1.226630000000000109e+00 1.249138000000000082e+00 2.798829999999999929e-01 -1.253611999999999949e+00 -1.256534000000000040e+00 -3.631900000000000128e-01 3.814379999999999993e-01 -7.333190000000000541e-01 -4.679200000000000026e-01 1.850110000000000088e-01 -2.062789999999999901e-01 -2.003939999999999888e-01 -1.520907000000000009e+00 -3.452600000000000113e-02 -2.408980000000000010e-01 -3.854460000000000108e-01 5.246889999999999610e-01 1.577302999999999900e+00 1.257949999999999902e-01 -1.465418000000000109e+00 3.977859999999999729e-01 -7.166899999999999660e-02 1.234801999999999955e+00 1.480172000000000043e+00 -5.809830000000000272e-01 -1.178830000000000017e-01 -4.368360000000000021e-01 -2.209099999999999953e-02 -2.449256999999999795e+00 -4.431530000000000191e-01 -6.122339999999999449e-01 -1.339183000000000012e+00
-9.195090000000000208e-01 -1.904530000000000056e+00 -1.016691000000000011e+00 -1.511639999999999928e-01 3.630340000000000233e-01 3.582799999999999874e-01 -2.376199999999999979e-01 3.271819999999999729e-01 1.505060000000000009e-01 6.755400000000000293e-01 -4.393900000000000028e-01 -1.245865000000000000e+00 -5.763409999999999922e-01 -1.532907000000000020e+00 -1.107752000000000070e+00 -9.814810000000000478e-01 6.126639999999999864e-01 -9.064659999999999940e-01 -1.414390000000000036e+00 2.945456000000000074e+00 -4.540469999999999784e-01 -5.849189999999999667e-01 7.290529999999999511e-01 1.381689999999999863e-01 9.279709999999999903e-01 -2.595544999999999991e+00 -9.049500000000000599e-02 -1.923400000000000110e-02 -3.592509999999999870e-01 1.427307000000000103e+00 1.637470000000000037e-01 5.660570000000000324e-01 1.575757000000000074e+00 -2.409530000000000005e-01 5.923279999999999657e-01 -2.891150000000000109e-01 -2.151959999999999984e-01 4.080469999999999930e-01 3.717739999999999934e-01 7.271410000000000373e-01 1.251428999999999903e+00 -3.527390000000000247e-01 -2.418530000000000124e-01 -3.001849999999999796e-01 1.042526000000000064e+00 -1.738049999999999873e-01 1.102280000000000065e-01 -1.041395000000000071e+00 1.400009999999999866e-01 -6.745099999999999707e-02 1.068049999999999972e-01 -8.236609999999999765e-01 -5.822709999999999830e-01 9.195000000000000395e-02 -7.663200000000000012e-01 1.014024000000000036e+00 4.181100000000000094e-02 4.275610000000000244e-01 -2.460350000000000037e-01 -3.498870000000000036e-01 1.129909999999999942e-01 -9.509910000000000307e-01 1.761209999999999998e-01 -1.216617000000000060e+00 9.022559999999999469e-01 -3.925549999999999873e-01 5.342660000000000187e-01 1.282527999999999890e+00 8.625369999999999981e-01 1.533110000000000028e-01 4.120960000000000178e-01 -2.553888999999999854e+00 7.356110000000000149e-01 -7.517479999999999718e-01 -2.393440000000000012e-01 1.478998000000000035e+00 1.875772999999999913e+00 8.202920000000000211e-01 4.067060000000000120e-01 4.474369999999999736e-01 7.174230000000000329e-01 7.400649999999999729e-01 2.163839999999999930e-01 -5.307539999999999480e-01 3.282930000000000015e-01 -5.598700000000000204e-02 -1.344710999999999990e+00 -9.163520000000000554e-01 -2.513371999999999939e+00 1.706669999999999909e+00 1.189883000000000024e+00 -2.304680000000000062e-01 3.395230000000000192e-01 7.978210000000000024e-01 -9.724900000000000211e-02 7.349210000000000464e-01 -6.049000000000000210e-02 -1.428595999999999977e+00 1.253335000000000088e+00
2.242926000000000197e+00 -3.126352999999999938e+00 -1.234202999999999939e+00 -6.745719999999999494e-01 -1.233495000000000008e+00 -6.349019999999999664e-01 -1.492582000000000075e+00 3.824159999999999782e-01 1.900911999999999935e+00 -1.710118000000000027e+00 -1.646695999999999938e+00 4.962810000000000277e-01 6.474379999999999580e-01 -1.475380000000000025e-01 -1.140095000000000081e+00 6.341849999999999987e-01 -3.895199999999999774e-01 9.569300000000000028e-02 3.598160000000000247e-01 -3.366109999999999935e-01 -1.530389999999999917e+00 5.357739999999999725e-01 5.684850000000000181e-01 2.454270000000000063e-01 -6.383999999999999397e-02 -6.421959999999999891e-01 -2.963686000000000043e+00 8.954779999999999962e-01 4.785699999999999676e-02 3.643890000000000184e-01 -1.191036999999999901e+00 -3.424138999999999822e+00 -7.518059999999999743e-01 -2.552949999999999942e-01 1.262890000000000068e+00 -4.257999999999999632e-03 3.368630000000000013e+00 7.696790000000000020e-01 -4.777900000000000202e-02 -1.312351000000000045e+00 -6.124460000000000459e-01 -1.072793000000000108e+00 1.627826999999999913e+00 2.943839999999999790e-01 2.511740000000000084e-01 -5.415100000000000469e-01 -3.778653999999999957e+00 2.913740000000000219e-01 -5.599500000000000310e-02 2.172920000000000129e-01 -1.984489999999999865e-01 4.038140000000000063e-01 2.872116999999999809e+00 7.744940000000000158e-01 -7.394279999999999742e-01 -8.647380000000000067e-01 2.038461999999999996e+00 1.148389999999999966e-01 2.122478000000000087e+00 1.117968000000000073e+00 9.489429999999999810e-01 -1.275799999999999990e-01 -1.406484999999999985e+00 -2.004197000000000006e+00 -2.961653000000000091e+00 2.434677000000000202e+00 7.202669999999999906e-01 1.919048000000000087e+00 -5.966759999999999842e-01 -1.159850000000000048e-01 1.061249000000000109e+00 1.558289000000000035e+00 -8.270399999999999974e-02 -2.827069999999999861e-01 -7.294319999999999693e-01 -6.304405000000000037e+00 2.532124000000000041e+00 1.275657000000000041e+00 -4.181179999999999897e-01 5.185269999999999602e-01 -2.513290000000000246e-01 2.009713999999999778e+00 -7.324969999999999537e-01 1.623090000000000088e-01 -1.284508999999999901e+00 1.862678999999999974e+00 -4.605899999999999994e-01 2.533220000000000027e+00 -1.092359999999999998e-01 -7.289769999999999861e-01 3.963420000000000276e-01 2.193935000000000191e+00 8.657759999999999900e-01 2.798490000000000144e-01 2.059766000000000208e+00 8.555970000000000519e-01 5.275859999999999994e-01 -2.688699999999999979e-01 -9.766289999999999694e-01
-1.376454000000000066e+00 -1.763376000000000055e+00 -1.983346000000000053e+00 -2.057259999999999922e-01 1.373664999999999914e+00 -1.361877999999999922e+00 1.691804000000000086e+00 -5.697470000000000034e-01 9.348739999999999828e-01 7.321490000000000498e-01 -3.235870000000000135e-01 5.227260000000000240e-01 1.895050000000000068e-01 -1.197100000000000074e-02 -6.913930000000000353e-01 -1.565189999999999915e-01 7.990080000000000515e-01 1.845828999999999942e+00 1.485754000000000019e+00 -3.491969999999999796e-01 -9.312399999999999844e-02 -1.080729000000000051e+00 -6.627900000000000458e-02 -1.032699999999999937e-02 4.837700000000000333e-02 -3.438060999999999812e+00 -1.694104999999999972e+00 8.015170000000000350e-01 -2.975318000000000129e+00 2.196720000000000061e-01 3.173569999999999780e+00 -1.589417999999999997e+00 -1.352568999999999910e+00 -1.069682000000000022e+00 1.825024999999999897e+00 -1.010999999999999920e-02 -4.396010000000000195e-01 5.383649999999999824e-01 5.401999999999999857e-02 8.631900000000000683e-02 -2.920779000000000014e+00 -9.728499999999999648e-02 -1.091628000000000043e+00 -3.054259999999999753e-01 1.064623000000000097e+00 -6.657490000000000352e-01 6.249000000000000214e-03 4.480042000000000080e+00 -2.546169999999999822e-01 1.027160000000000017e-01 1.125656999999999908e+00 6.537809999999999455e-01 1.409875999999999907e+00 5.690669999999999895e-01 -1.311520999999999937e+00 5.601899999999999658e-01 -1.545814999999999939e+00 -1.089328000000000074e+00 3.399271000000000154e+00 1.948670000000000124e-01 2.801994999999999791e+00 1.465117999999999920e+00 7.699270000000000280e-01 1.378060000000000118e-01 7.798690000000000344e-01 3.492250000000000076e-01 7.619930000000000314e-01 1.377520000000000133e-01 -3.637310000000000265e-01 9.267600000000000282e-01 -2.584099999999999939e-02 -5.444529999999999648e-01 -1.695271999999999890e+00 1.422859000000000096e+00 -1.555900000000000061e-01 -1.091542000000000012e+00 2.528297999999999934e+00 2.028986000000000178e+00 -9.376259999999999595e-01 -5.181869999999999532e-01 -1.729980000000000073e+00 1.043189999999999951e-01 -1.064451000000000036e+00 2.502559999999999785e-01 -1.985116000000000103e+00 -2.128407999999999856e+00 -9.614799999999999736e-02 2.817910000000000137e-01 1.359555000000000069e+00 4.936539999999999817e-01 2.560741000000000156e+00 1.595013000000000014e+00 5.694799999999999862e-02 -1.815102999999999911e+00 -1.655848999999999904e+00 -1.731813000000000047e+00 -1.719670000000000087e-01 4.030699999999999839e-01 -1.498704999999999954e+00
6.472959999999999825e-01 1.237646999999999942e+00 1.941551999999999945e+00 5.587790000000000257e-01 6.168120000000000269e-01 1.594095999999999957e+00 7.568390000000000395e-01 -5.921599999999999780e-02 -9.846500000000000252e-01 6.949500000000000122e-02 -1.880019000000000107e+00 -1.512056999999999984e+00 -2.271819999999999951e-01 7.983019999999999561e-01 -1.139180000000000081e+00 5.592559999999999754e-01 -5.484790000000000498e-01 -2.262389999999999957e-01 -4.362710000000000199e-01 -1.449505999999999961e+00 -2.281320000000000014e-01 1.768979999999999997e-01 1.226099999999999968e-01 2.620040000000000147e-01 -1.062980000000000036e+00 -1.318459000000000048e+00 -1.486488999999999949e+00 -3.214850000000000207e-01 1.345793999999999935e+00 1.269544000000000006e+00 -2.592877999999999794e+00 9.095879999999999521e-01 -2.199415000000000120e+00 -7.058100000000000485e-02 -9.228960000000000496e-01 -1.854310000000000125e-01 2.861999999999999961e-02 7.216489999999999849e-01 1.539171999999999985e+00 -7.835100000000000398e-01 1.523136000000000045e+00 -6.330459999999999976e-01 6.851580000000000448e-01 -9.479910000000000281e-01 -4.292509999999999937e-01 -7.230849999999999778e-01 5.220339999999999980e-01 1.296980000000000022e+00 -6.302729999999999722e-01 -4.089659999999999962e-01 5.848430000000000017e-01 -8.325660000000000283e-01 -1.652786000000000088e+00 1.210250999999999966e+00 1.877340000000000009e+00 -4.892500000000000182e-01 -6.699739999999999585e-01 2.554726000000000052e+00 1.138805000000000067e+00 2.452561000000000213e+00 -2.046400000000000219e+00 3.334059999999999802e-01 -3.142329999999999846e-01 2.265850000000000086e-01 -5.115030000000000410e-01 -2.774050000000000127e-01 3.977600000000000025e-01 -1.913430000000000131e-01 -1.179483000000000059e+00 1.966179999999999872e-01 9.676810000000000134e-01 8.538930000000000131e-01 1.511851999999999974e+00 -1.033214000000000077e+00 1.167658000000000085e+00 8.101599999999999913e-01 1.497803999999999913e+00 -1.222739999999999938e+00 -1.796823000000000059e+00 5.863199999999999523e-01 8.653009999999999868e-01 1.066513999999999962e+00 -9.990149999999999864e-01 -1.195205000000000073e+00 -7.589300000000000213e-02 4.163799999999999724e-01 1.898800000000000140e-02 -8.615880000000000205e-01 -7.363709999999999978e-01 4.191489999999999938e-01 1.183613000000000026e+00 2.060100000000000126e-02 -2.344913000000000025e+00 -2.349032999999999927e+00 -1.050405999999999951e+00 -8.136470000000000091e-01 1.503039000000000014e+00 1.440849999999999964e+00 1.565498999999999974e+00
-9.487950000000000550e-01 8.274489999999999901e-01 -5.595329999999999471e-01 7.332560000000000189e-01 -3.221926999999999985e+00 2.116176999999999975e+00 9.794559999999999933e-01 -3.395230000000000192e-01 2.248933000000000071e+00 8.830280000000000351e-01 8.719459999999999988e-01 7.523140000000000382e-01 -2.136119999999999963e-01 3.737989999999999924e+00 -1.577755999999999936e+00 -9.696799999999999864e-01 2.687781999999999893e+00 -2.367421999999999915e+00 2.033835999999999977e+00 -2.272919999999999940e-01 -1.432345999999999897e+00 1.376989999999999881e-01 2.289626999999999857e+00 1.182774999999999910e+00 5.954580000000000428e-01 -2.786538999999999877e+00 -2.612909999999999955e-01 -1.405942000000000025e+00 3.447140000000000204e-01 -3.674470000000000236e-01 -2.273920000000000108e-01 4.685900000000000065e-01 -1.232344000000000106e+00 4.797000000000000049e-03 -2.212741999999999987e+00 -4.629099999999999882e-02 -5.501150000000000206e-01 -3.665996999999999950e+00 -1.390678999999999998e+00 -6.032290000000000152e-01 -1.194800000000000029e-02 -6.000259999999999483e-01 7.494849999999999568e-01 1.017052999999999985e+00 -1.284458000000000100e+00 -9.236189999999999678e-01 7.199480000000000324e-01 2.638755999999999879e+00 -1.013349999999999945e-01 8.609630000000000338e-01 -3.176241999999999788e+00 1.714091999999999949e+00 7.250959999999999628e-01 -2.312329999999999941e-01 1.605369000000000046e+00 3.213948999999999945e+00 3.159109999999999974e-01 -2.710342999999999947e+00 2.659762999999999877e+00 -1.834830000000000072e-01 2.479328999999999894e+00 -1.115903000000000089e+00 -1.121431000000000067e+00 1.536375999999999964e+00 -4.437349999999999905e-01 9.793260000000000298e-01 1.153056999999999999e+00 -8.382870000000000044e-01 -1.576113000000000097e+00 1.011948999999999987e+00 2.963741000000000181e+00 1.624889999999999946e+00 -9.400619999999999532e-01 -1.058690000000000048e-01 -1.442336999999999980e+00 -1.132230000000000070e+00 -1.157224999999999948e+00 7.180200000000000471e-02 -2.244148000000000032e+00 1.485888000000000098e+00 3.539950000000000041e-01 -2.614270000000000205e-01 -2.286849999999999994e-01 3.570059999999999900e-01 -1.110935000000000006e+00 -1.317188000000000025e+00 2.424857999999999958e+00 -1.173658000000000090e+00 -1.076155999999999890e+00 1.921734000000000053e+00 1.528013000000000066e+00 2.110599999999999976e-01 -4.834910000000000041e-01 -1.448849999999999971e+00 -1.393331000000000097e+00 1.161707999999999963e+00 -1.798250000000000126e-01 -4.943209000000000408e+00 1.183740000000000014e+00
2.242554999999999854e+00 -3.706240000000000090e-01 2.504480000000000040e-01 -9.856000000000000177e-03 7.638800000000000034e-01 -2.628207000000000182e+00 -1.795150000000000079e-01 3.897229999999999861e-01 8.870770000000000044e-01 1.202717000000000036e+00 8.913510000000000044e-01 -6.279600000000000459e-02 1.705791000000000057e+00 -1.134519000000000055e+00 1.316365999999999925e+00 -7.615429999999999700e-01 -8.729099999999999637e-01 4.402380000000000182e-01 1.224761999999999906e+00 -9.870700000000000307e-02 -6.667440000000000033e-01 -1.527733000000000008e+00 -8.484040000000000470e-01 1.428700999999999999e+00 -3.044580000000000064e-01 1.710200000000000053e-01 -5.756599999999999495e-01 1.336146999999999974e+00 5.578260000000000440e-01 -1.652349000000000068e+00 9.187060000000000226e-01 4.315080000000000027e-01 -2.761509999999999798e-01 -9.138070000000000359e-01 -2.249731999999999843e+00 -3.477640000000000176e-01 -2.039430000000000132e-01 8.298229999999999773e-01 -5.386769999999999614e-01 2.472550000000000026e-01 1.590881999999999907e+00 -1.695419000000000009e+00 7.621959999999999846e-01 1.000939000000000023e+00 1.181230000000000058e-01 -9.924840000000000328e-01 7.692899999999999738e-02 -1.263446999999999987e+00 4.810650000000000204e-01 -5.872859999999999747e-01 2.935077000000000158e+00 6.164720000000000200e-01 9.173850000000000060e-01 -1.022307999999999995e+00 3.823670000000000124e-01 8.980890000000000262e-01 5.214950000000000419e-01 -1.403590000000000115e-01 -2.157340000000000091e-01 -7.409120000000000150e-01 -3.476200000000000123e-02 -1.178535000000000110e+00 2.910659999999999914e-01 -7.962510000000000421e-01 9.879860000000000309e-01 -6.465090000000000003e-01 -3.176910000000000012e-01 5.845620000000000260e-01 1.307087000000000110e+00 -1.494909999999999961e+00 -4.501419999999999866e-01 -6.464919999999999556e-01 1.190331999999999946e+00 -8.400549999999999962e-01 1.366691000000000100e+00 -6.781829999999999803e-01 -6.181999999999999995e-03 1.558281999999999945e+00 -9.616789999999999505e-01 -7.734550000000000036e-01 3.556849999999999734e-01 -1.463608000000000020e+00 -4.819930000000000048e-01 1.163793999999999995e+00 2.882410000000000250e-01 1.562672000000000061e+00 -1.107264000000000026e+00 -1.087544000000000066e+00 -2.229512000000000160e+00 1.851912999999999920e+00 5.530410000000000048e-01 -1.204787999999999970e+00 -1.129418999999999951e+00 -1.568967999999999918e+00 8.146550000000000180e-01 -9.825660000000000505e-01 2.856440000000000090e-01 1.073347999999999969e+00 1.906420000000000059e-01
8.557999999999999635e-03 -2.276420000000000110e-01 -2.081780000000000019e-01 -2.345700000000000007e-01 -9.896890000000000409e-01 1.816989999999999994e-01 1.568500000000000102e-02 -2.171440000000000037e-01 -1.841559999999999864e-01 2.340299999999999880e-01 1.900900000000000159e-02 1.774979999999999891e-01 4.315000000000000259e-03 4.828199999999999853e-02 2.682700000000000015e-02 -2.475229999999999930e-01 -3.744399999999999812e-02 -4.991999999999999910e-02 -1.628330000000000055e-01 1.322820000000000107e-01 -2.557710000000000261e-01 -3.199830000000000174e-01 2.663499999999999895e-02 -4.546720000000000206e-01 -8.494300000000000461e-02 3.503689999999999860e-01 9.271799999999999486e-02 2.767419999999999880e-01 -4.593200000000000061e-02 -2.608429999999999915e-01 5.401979999999999560e-01 -1.468810000000000116e-01 -2.558039999999999758e-01 3.405770000000000186e-01 5.355379999999999585e-01 2.362070000000000003e-01 1.537900000000000100e-01 -5.500089999999999701e-01 -2.047259999999999913e-01 -1.766260000000000052e-01 -1.701000000000000038e-03 4.208300000000000235e-02 2.653329999999999855e-01 2.301410000000000122e-01 6.225420000000000398e-01 -3.969679999999999875e-01 -1.996449999999999891e-01 1.461069999999999869e-01 -2.663760000000000017e-01 2.377259999999999929e-01 8.779399999999999704e-02 1.648509999999999975e-01 1.670099999999999918e-01 -1.277020000000000099e-01 1.405329999999999913e-01 -2.907319999999999904e-01 -5.808499999999999774e-02 -6.564280000000000115e-01 -1.399380000000000068e-01 3.516400000000000081e-02 -4.131699999999999956e-02 -1.574300000000000005e-02 -1.581879999999999953e-01 -2.557380000000000209e-01 9.851999999999999647e-03 -3.506299999999999972e-01 -4.013019999999999921e-01 3.812999999999999723e-01 -7.489700000000000524e-02 1.516049999999999898e-01 2.670870000000000188e-01 8.698100000000000276e-02 1.660099999999999909e-01 -5.387490000000000334e-01 2.495680000000000121e-01 -5.594339999999999868e-01 6.886499999999999844e-01 6.339029999999999943e-01 4.166880000000000028e-01 -2.496690000000000020e-01 -1.548710000000000087e-01 4.808199999999999974e-02 -6.921700000000000075e-02 4.664499999999999896e-02 2.108309999999999906e-01 5.222590000000000288e-01 4.196600000000000330e-02 2.585589999999999833e-01 2.011000000000000010e-01 3.861870000000000025e-01 -1.597179999999999989e-01 2.092469999999999886e-01 1.552399999999999960e-02 2.478049999999999975e-01 -1.799280000000000046e-01 1.971099999999999935e-02 3.195649999999999880e-01 -1.264200000000000046e-01 -3.306799999999999740e-01
6.241889999999999938e-01 3.200038999999999856e+00 -1.486868999999999996e+00 -9.315949999999999509e-01 -2.208952000000000027e+00 1.033106000000000080e+00 1.199991999999999948e+00 -1.719950000000000090e-01 1.107749999999999985e-01 7.202479999999999993e-01 7.834699999999999998e-02 1.081056000000000017e+00 -6.039630000000000276e-01 -1.981519999999999948e-01 1.434950000000000114e-01 -4.830550000000000122e-01 -2.698499999999999788e-01 -5.502430000000000376e-01 1.389269999999999949e-01 -1.172760999999999942e+00 -3.591400000000000148e-01 1.065299999999999914e+00 -1.993159999999999932e-01 -1.893926999999999916e+00 2.280750000000000000e-01 1.333661999999999903e+00 7.797180000000000222e-01 8.399529999999999497e-01 9.192890000000000228e-01 1.761079999999999868e-01 3.144339999999999913e-01 -8.509799999999999587e-01 -1.068862999999999897e+00 -1.633450999999999986e+00 8.517550000000000399e-01 -4.160579999999999834e-01 -1.833153000000000032e+00 1.063453999999999899e+00 5.400979999999999670e-01 2.560518000000000072e+00 1.275546999999999986e+00 -5.618140000000000356e-01 1.880809999999999982e-01 9.044290000000000385e-01 8.509529999999999594e-01 -1.224309000000000092e+00 -8.771390000000000020e-01 2.586821000000000037e+00 -3.906180000000000208e-01 1.553981000000000057e+00 -1.141340999999999939e+00 4.403759999999999897e-01 5.974310000000000453e-01 -2.490140000000000131e-01 -3.154011999999999816e+00 -1.468089999999999895e+00 -6.865100000000000369e-02 1.358864999999999990e+00 6.759709999999999885e-01 -3.395499999999999907e-02 1.643172000000000077e+00 -7.604990000000000361e-01 -1.081198000000000103e+00 -6.057900000000000090e-02 -1.768810999999999911e+00 1.488889999999999936e-01 1.064022999999999941e+00 -1.147545000000000037e+00 5.442999999999999922e-02 -1.078988999999999976e+00 -1.202121999999999913e+00 2.450469999999999871e-01 6.918919999999999515e-01 1.178395999999999999e+00 -4.455300000000000232e-02 -7.682759999999999589e-01 -1.467040000000000011e-01 3.564959999999999796e-01 -4.558329999999999882e-01 -3.907900000000000262e-02 -8.348830000000000418e-01 -1.268500000000000009e-02 -3.406159000000000159e+00 1.476795000000000080e+00 1.089799999999999935e-01 5.187049999999999716e-01 1.126295999999999964e+00 -2.605250000000000066e-01 1.947250000000000092e-01 -3.728529999999999900e-01 2.026564000000000032e+00 2.338480000000000003e-01 3.484160000000000035e-01 -9.736609999999999987e-01 8.543199999999999683e-01 -1.512186999999999948e+00 -1.348881999999999914e+00 4.542559999999999931e-01 6.170480000000000409e-01
1.393759999999999999e-01 -1.952822000000000058e+00 -7.059269999999999712e-01 -1.356199999999999940e-02 -3.093879999999999963e+00 2.941438000000000219e+00 -1.004173999999999900e+00 1.795763999999999916e+00 1.310988000000000042e+00 -1.548121000000000080e+00 -8.494599999999999929e-01 -8.708320000000000505e-01 -5.956519999999999593e-01 -7.522039999999999837e-01 -2.444179999999999964e-01 1.386803999999999926e+00 -5.002790000000000292e-01 3.310000000000000225e-04 -2.757518999999999831e+00 1.049780000000000019e-01 -6.786459999999999715e-01 6.480550000000000477e-01 -9.669999999999999776e-04 -1.454962000000000089e+00 -6.200980000000000381e-01 9.740480000000000249e-01 -1.836791999999999980e+00 -6.594400000000000261e-01 -1.013490999999999920e+00 2.159698000000000118e+00 2.065221000000000195e+00 -4.793339999999999823e-01 3.196100000000000330e-02 -5.297840000000000327e-01 -5.507079999999999753e-01 7.207050000000000400e-01 -1.026313999999999949e+00 -1.120319999999999983e+00 -1.082834999999999992e+00 1.423896000000000051e+00 6.775689999999999769e-01 -6.922700000000000520e-01 -2.017799999999999816e+00 1.334019000000000066e+00 -9.041299999999999892e-01 -7.958790000000000031e-01 -5.557659999999999823e-01 -5.331839999999999913e-01 -1.460666999999999938e+00 1.014551999999999898e+00 -4.159804000000000279e+00 1.140565999999999969e+00 8.533039999999999514e-01 6.370909999999999629e-01 -1.187602999999999964e+00 1.284256999999999982e+00 5.257239999999999691e-01 -1.870950000000000113e-01 -3.416190000000000060e-01 -1.400333999999999968e+00 9.176339999999999497e-01 4.480199999999999738e-01 -8.739700000000000246e-02 -9.575599999999999390e-02 -1.640533999999999937e+00 1.990898000000000057e+00 -3.276479999999999948e-01 1.468202000000000007e+00 2.186279999999999890e-01 3.017920000000000047e-01 -1.605310000000000070e-01 1.538237000000000076e+00 5.571530000000000094e-01 -3.291450000000000209e-01 5.747090000000000254e-01 3.084299999999999889e-02 5.340780000000000527e-01 -5.371979999999999533e-01 4.473119999999999874e-01 1.016510000000000052e-01 -1.235499999999999966e-02 2.952170000000000183e+00 1.517838000000000021e+00 7.928239999999999732e-01 3.382450000000000179e-01 1.123544000000000098e+00 6.702320000000000499e-01 5.978189999999999893e-01 -6.771160000000000512e-01 1.717990000000000073e-01 1.080840999999999941e+00 5.864719999999999933e-01 3.242909999999999959e-01 1.082150000000000056e-01 -4.400470000000000215e-01 -1.606559999999999933e-01 6.911680000000000046e-01 6.399259999999999948e-01 7.521860000000000213e-01