6.266089999999999716e-01 -4.376000000000000334e+00 -3.119904000000000011e+00 6.511970000000000258e-01 2.361657000000000117e+00 2.974175999999999931e+00 -5.454539999999999944e-01 1.201139999999999985e-01 6.251309999999999922e-01 -1.844389999999999918e-01 -2.394032000000000160e+00 1.451739999999999975e-01 2.687869999999999981e-01 1.002728999999999981e+00 5.489100000000000229e-02 -7.638190000000000257e-01 2.253039999999999932e+00 8.926849999999999508e-01 1.634895999999999905e+00 6.820659999999999501e-01 -7.645250000000000101e-01 2.237899000000000083e+00 4.354000000000000231e-02 1.178525000000000045e+00 -1.052891000000000021e+00 -1.053641999999999967e+00 -9.136149999999999549e-01 1.453321000000000085e+00 6.869220000000000326e-01 6.691000000000000281e-01 3.872709999999999764e-01 -1.260499999999999989e-02 -4.847100000000000020e-02 9.784359999999999724e-01 -2.444510999999999878e+00 -2.192839000000000205e+00 -1.484617999999999993e+00 -8.755699999999999594e-01 1.086448999999999998e+00 4.660750000000000171e-01 2.164937999999999807e+00 -5.445500000000000340e-02 -9.481230000000000491e-01 1.476563000000000070e+00 -4.394210000000000060e-01 -1.292570000000000108e-01 1.424900999999999973e+00 1.767241999999999980e+00 -2.752048999999999968e+00 -3.845299999999999829e-01 -5.994869999999999921e-01 9.660579999999999723e-01 3.150149999999999895e-01 -1.751994999999999969e+00 1.183680000000000010e-01 3.580341000000000218e+00 -1.013973999999999931e+00 -6.544929999999999914e-01 8.138030000000000541e-01 2.299347000000000030e+00 -9.044560000000000377e-01 4.134979000000000404e+00 1.698285999999999962e+00 -5.228479999999999794e-01 -1.112635000000000041e+00 -4.275709999999999789e-01 1.724418000000000006e+00 1.421880000000000088e-01 2.877660000000000218e-01 -9.377999999999999184e-03 -3.244529999999999914e-01 1.699542000000000108e+00 -1.825509999999999911e-01 1.811606000000000050e+00 9.886310000000000375e-01 -1.230393000000000070e+00 -2.838600000000000012e+00 6.730260000000000131e-01 -4.858990000000000253e-01 -1.037233000000000072e+00 1.479975999999999958e+00 -9.445199999999999430e-02 -1.355642999999999931e+00 -1.291279999999999983e+00 -1.982892000000000099e+00 -2.727243999999999780e+00 -5.302360000000000406e-01 -1.883051000000000030e+00 2.205397000000000052e+00 1.691035999999999984e+00 -2.546536000000000133e+00 -5.798069999999999613e-01 -9.802199999999999802e-02 2.131825000000000081e+00 -9.152150000000000007e-01 1.669615000000000071e+00 -6.108479999999999466e-01 -5.398199999999999665e-01 -7.026010000000000311e-01 5.013609999999999456e-01 -1.092389999999999972e+00 -2.891118000000000077e+00 1.440671000000000035e+00 -6.428869999999999862e-01 3.276249999999999996e-01 -1.306059999999999999e-01 -5.714409999999999767e-01 4.269439999999999902e-01 -5.762894000000000183e+00 1.687845000000000040e+00 -1.601890999999999954e+00 3.587440000000000073e-01 1.114219000000000070e+00 -2.256791000000000214e+00 1.998880999999999908e+00 -1.153499999999999942e-01 2.249918000000000085e+00 5.325069999999999526e-01 -6.429099999999999815e-01 1.958300000000000041e-01 -1.819463000000000052e+00 7.180100000000000371e-02 -1.042475999999999958e+00 4.603610000000000202e-01 7.156200000000000061e-02 -5.771450000000000191e-01 3.236580000000000013e-01 4.695440000000000169e-01 5.213299999999999879e-02 3.514439999999999786e-01 1.025298999999999960e+00 6.992159999999999487e-01 -4.064110000000000222e-01 -1.569844999999999935e+00 1.886050000000000004e+00 4.935354000000000241e+00 5.459886000000000017e+00 1.545658999999999894e+00 -1.834683999999999982e+00 1.355285000000000073e+00 -8.414789999999999770e-01 2.983330000000000148e-01 -3.334159999999999902e-01 8.891019999999999479e-01 1.612975000000000048e+00 5.645229999999999970e-01 -6.247890000000000388e-01 1.545833999999999930e+00 1.032030000000000031e-01 -2.346051000000000109e+00 -2.326300000000000034e-01 -3.244619999999999838e+00 -2.308230000000000004e-01 -1.612449999999999939e+00 -3.488697999999999855e+00 -2.643921999999999883e+00 3.711720000000000019e-01 -2.479208999999999996e+00 -2.987370999999999999e+00 2.391131000000000117e+00 9.344999999999999141e-03 1.839175000000000004e+00
-5.466376999999999597e+00 -1.639021999999999979e+00 3.637398999999999827e+00 -7.851669999999999483e-01 -1.069520000000000054e-01 -1.628959000000000046e+00 7.532300000000000106e-02 -7.631660000000000110e-01 1.724979999999999958e+00 -6.233699999999999658e-02 1.574114000000000013e+00 -3.268019999999999814e-01 5.608630000000000004e-01 -4.701690000000000036e-01 1.959970000000000045e-01 1.885726000000000013e+00 -1.428131000000000039e+00 -3.327829999999999955e-01 1.861215000000000064e+00 -3.200155999999999779e+00 -6.244410000000000238e-01 -1.791750000000000009e-01 9.175569999999999560e-01 7.818720000000000114e-01 -2.840179999999999927e-01 9.843030000000000390e-01 1.490064999999999973e+00 -1.354789999999999883e-01 2.193249999999999922e-01 -1.384297000000000111e+00 9.357820000000000027e-01 8.263030000000000097e-01 -1.222760999999999987e+00 3.081900000000000195e-01 9.294369999999999576e-01 -1.463929999999999954e-01 8.541870000000000296e-01 6.267779999999999463e-01 1.894119999999999970e-01 3.953160000000000007e-01 1.914787000000000017e+00 -3.841439999999999855e-01 -1.413802999999999921e+00 1.057641000000000053e+00 1.609882000000000035e+00 -4.699349999999999916e-01 -2.162935000000000052e+00 8.220000000000000310e-04 4.651879999999999904e-01 8.391189999999999483e-01 -1.884290000000000131e-01 -1.659305000000000030e+00 -2.357019000000000197e+00 -8.152599999999999847e-01 1.652700000000000002e-01 -6.452259999999999662e-01 -2.263008999999999826e+00 -1.065755999999999926e+00 -5.739360000000000017e-01 1.229843999999999937e+00 1.661165999999999920e+00 -3.253360999999999947e+00 2.743786000000000058e+00 -4.702279999999999793e-01 1.277101000000000042e+00 -1.471820000000000073e-01 1.027201000000000031e+00 1.217789000000000010e+00 -2.089745999999999881e+00 1.324339999999999962e-01 1.342408000000000046e+00 -4.860760000000000081e-01 4.497570000000000179e-01 -1.179579999999999934e-01 -9.567109999999999781e-01 -3.654990000000000183e-01 -2.842500000000000027e-01 4.366260000000000141e-01 -6.744970000000000132e-01 2.508699000000000012e+00 1.612492999999999954e+00 -1.695659000000000027e+00 -6.592289999999999539e-01 -1.994090000000000029e-01 -2.951219999999999954e-01 -5.990100000000000285e-02 1.771960999999999897e+00 1.498199000000000058e+00 2.520639000000000074e+00 -2.396377000000000201e+00 7.535779999999999701e-01 -1.209891999999999967e+00 -1.948936000000000002e+00 -8.319769999999999666e-01 3.374539999999999762e-01 -1.023899999999999984e-02 1.471109000000000000e+00 -9.463430000000000453e-01 4.963989999999999791e-01 -1.427900000000000003e-02 1.272497999999999907e+00 9.296699999999999409e-02 -1.103593000000000046e+00 -1.376152999999999960e+00 2.910623000000000182e+00 1.207373999999999947e+00 2.987041000000000057e+00 1.021279000000000048e+00 3.342353000000000129e+00 1.883974000000000038e+00 1.726955000000000018e+00 -6.042779999999999818e-01 -2.657459999999999933e+00 4.020460000000000145e-01 -1.617550999999999961e+00 -4.686040000000000205e-01 -5.166049999999999809e-01 -1.280789999999999984e-01 -1.685330999999999912e+00 -2.904678999999999789e+00 6.559960000000000235e-01 8.756810000000000427e-01 -1.273369999999999891e+00 1.778448999999999947e+00 7.136580000000000146e-01 2.751501000000000197e+00 -7.959800000000000209e-02 -4.467769999999999797e-01 5.192039999999999988e-01 -6.768100000000000505e-02 1.363736999999999977e+00 -3.750269999999999992e-01 -3.824629999999999974e-01 -8.380100000000000326e-01 2.345029999999999892e-01 -3.401399999999999979e-01 7.025439999999999463e-01 5.158869999999999845e-01 1.741343000000000085e+00 7.164800000000000335e-02 -1.486437999999999926e+00 1.516010999999999997e+00 -1.265921000000000074e+00 -1.284108999999999945e+00 2.511479999999999824e-01 -1.002701000000000064e+00 1.667763000000000106e+00 -1.800593000000000110e+00 -2.048439999999999983e-01 -1.833687999999999985e+00 -2.102342999999999851e+00 -1.146768999999999927e+00 -4.365189999999999904e-01 -5.599400000000000210e-02 2.030298000000000158e+00 -1.091410999999999909e+00 -9.688689999999999802e-01 -1.205028999999999906e+00 1.740800000000000125e-01 1.266200000000000103e-01 1.180711000000000066e+00 -1.184542999999999902e+00
-9.261800000000000033e-01 -1.257951000000000041e+00 1.096948999999999952e+00 1.562543999999999933e+00 2.423604999999999787e+00 -5.387220000000000342e-01 1.672495999999999983e+00 -1.496717999999999993e+00 5.436769999999999659e-01 1.058672999999999975e+00 7.963230000000000031e-01 1.923877999999999977e+00 -2.028366999999999809e+00 -2.112100000000000088e-01 -2.080541999999999891e+00 -8.101840000000000153e-01 -9.950050000000000283e-01 -1.695842000000000072e+00 -2.151320999999999817e+00 -1.845294999999999908e+00 1.772858999999999963e+00 2.611680000000000113e-01 1.689060000000000006e-01 -1.240269999999999984e-01 2.308540000000000036e-01 -8.191099999999999770e-02 1.494990000000000041e+00 7.655459999999999487e-01 1.730474999999999985e+00 -7.704640000000000377e-01 9.522380000000000289e-01 -4.039608999999999561e+00 -3.399839000000000055e+00 -3.971540000000000070e-01 -7.182929999999999593e-01 2.554089999999999971e-01 8.934539999999999704e-01 -1.050254000000000021e+00 -1.449859000000000009e+00 -1.119202000000000030e+00 -5.183320000000000149e-01 -3.535940000000000194e-01 2.652399999999999758e-01 9.101949999999999763e-01 5.109479999999999578e-01 -1.952868000000000048e+00 -1.375609000000000082e+00 -3.476198000000000121e+00 -5.053811999999999749e+00 2.898038000000000114e+00 -4.399880999999999709e+00 1.262277000000000093e+00 -9.510370000000000212e-01 -5.404069999999999707e-01 -1.392133999999999983e+00 1.838400000000000034e-01 -1.766833000000000098e+00 7.829970000000000541e-01 1.940612999999999921e+00 1.674752999999999936e+00 -1.235354000000000063e+00 2.056576999999999877e+00 -2.074628000000000139e+00 1.742819999999999925e-01 -1.313376000000000099e+00 1.341701000000000032e+00 4.985600000000000032e-01 -3.091820000000000124e-01 6.926229999999999887e-01 -1.046124999999999972e+00 1.699686000000000030e+00 1.817552000000000056e+00 8.848399999999999599e-01 -4.051109999999999989e-01 9.706019999999999648e-01 -2.928359999999999852e-01 -4.491299999999999737e-01 4.737640000000000184e-01 -1.984653999999999918e+00 -1.153300999999999910e+00 2.868669999999999831e-01 -8.792149999999999688e-01 -2.368850000000000122e-01 2.882410000000000250e-01 3.773679999999999812e-01 4.555284999999999584e+00 3.076754999999999907e+00 -1.326761000000000079e+00 3.722219999999999973e-01 1.695894000000000013e+00 1.693273000000000028e+00 1.201464000000000087e+00 1.890446000000000071e+00 5.190160000000000329e-01 1.756520999999999999e+00 -2.163581000000000198e+00 -7.013179999999999970e-01 8.849019999999999664e-01 -1.221859999999999946e+00 4.942130000000000134e-01 2.598510999999999793e+00 4.020425000000000360e+00 -2.430718000000000156e+00 -2.689227999999999952e+00 2.117827000000000126e+00 1.041071000000000080e+00 9.231650000000000134e-01 -2.855322000000000138e+00 6.749690000000000412e-01 2.818245000000000111e+00 2.196230000000000127e-01 1.261818000000000106e+00 -7.505600000000000049e-01 -1.449052000000000007e+00 3.979630000000000112e-01 2.274760000000000115e-01 -1.506402000000000019e+00 -1.072108000000000061e+00 9.088410000000000100e-01 -3.535719999999999974e-01 5.924841999999999942e+00 -3.322916999999999899e+00 3.718541999999999792e+00 8.629229999999999956e-01 5.073839999999999462e-01 -7.148499999999999854e-01 -5.601310000000000455e-01 -1.497069999999999901e+00 6.325830000000000064e-01 -4.047569999999999779e-01 -9.147720000000000296e-01 -5.462299999999999794e-02 3.801189999999999847e-01 -2.088153999999999844e+00 1.981921999999999962e+00 -3.288070000000000159e-01 -2.309416999999999831e+00 -8.871609999999999774e-01 -2.253498000000000001e+00 3.024554000000000187e+00 4.677100000000000007e-02 1.446128999999999998e+00 3.052982000000000085e+00 -1.857839000000000018e+00 -8.825690000000000479e-01 5.088819999999999455e-01 -3.621579999999999799e-01 -8.411520000000000108e-01 4.976470000000000060e-01 1.360087999999999964e+00 -1.494630000000000125e-01 -1.500819999999999932e-01 -1.626239999999999908e-01 2.208412000000000042e+00 -3.529840999999999784e+00 1.639199000000000073e+00 1.507735000000000047e+00 -5.348380000000000356e-01 -1.990186999999999928e+00 2.165665999999999869e+00 -2.451248999999999789e+00 7.051800000000000290e-01
-6.317369999999999930e-01 -5.774230000000000196e-01 5.767060000000000519e-01 2.545919999999999850e-01 1.675696999999999992e+00 -1.933675000000000033e+00 1.197645999999999988e+00 -1.610192999999999985e+00 1.531585999999999892e+00 1.424468000000000067e+00 -1.692615999999999898e+00 -5.807639999999999469e-01 4.554630000000000067e-01 -9.629999999999999671e-01 6.991300000000000292e-01 5.156140000000000168e-01 9.810759999999999481e-01 -1.181419999999999970e-01 4.174160000000000093e-01 2.266541000000000139e+00 -2.134720999999999869e+00 7.358329999999999593e-01 1.388945000000000096e+00 5.681519999999999904e-01 -9.813899999999999846e-01 -1.640900000000000136e-01 1.862155000000000005e+00 1.785747999999999891e+00 -6.185610000000000275e-01 -3.988499999999999684e-02 -2.073011999999999855e+00 6.604010000000000158e-01 -1.773000000000000131e-01 1.503230999999999984e+00 -2.056208999999999953e+00 1.015268000000000059e+00 7.521660000000000013e-01 4.606830000000000092e-01 1.670671000000000017e+00 1.814592999999999900e+00 -4.702729999999999966e-01 1.801080000000000014e+00 5.057260000000000089e-01 -1.732541000000000109e+00 2.224790000000000101e-01 -8.968739999999999490e-01 -1.728563999999999989e+00 -1.456164000000000014e+00 -1.651090000000000058e-01 4.833899999999999864e+00 4.758505000000000429e+00 -2.186884000000000050e+00 8.574079999999999480e-01 7.431459999999999733e-01 7.070200000000000096e-02 4.432209999999999761e-01 -3.271472999999999853e+00 -2.650170000000000026e-01 -1.099861999999999895e+00 3.964210000000000234e-01 -8.180039999999999534e-01 -6.752660000000000329e-01 2.041671000000000014e+00 8.852910000000000501e-01 -6.629890999999999757e+00 -2.766094999999999970e+00 -4.962559999999999749e-01 5.729450000000000376e-01 1.353350000000000053e+00 -2.307659999999999989e-01 -7.172009999999999774e-01 -3.344570000000000043e-01 -4.205769999999999786e-01 1.093277999999999972e+00 -3.984230000000000271e-01 -1.999811999999999923e+00 8.734709999999999974e-01 -2.620760999999999896e+00 1.781239999999999934e+00 2.493781999999999943e+00 3.013600000000000168e-01 -1.494896999999999920e+00 8.140880000000000338e-01 -8.372370000000000090e-01 5.447560000000000180e-01 1.804623000000000088e+00 6.079989999999999561e-01 -1.138748000000000093e+00 2.528945000000000221e+00 6.743609999999999882e-01 1.474237999999999937e+00 -5.335600000000000065e-02 3.450734000000000190e+00 -2.665179999999999882e+00 -1.529498000000000024e+00 -2.540883000000000003e+00 -1.204080999999999957e+00 -2.507245000000000168e+00 -1.675132000000000065e+00 1.695990000000000109e+00 -1.328862999999999905e+00 9.306320000000000148e-01 1.598830999999999891e+00 1.840929999999999955e+00 -1.001163999999999943e+00 -3.439720000000000000e-01 1.370467000000000102e+00 -2.124776000000000220e+00 6.686729999999999619e-01 2.051203000000000110e+00 -3.715169999999999861e-01 -2.430810999999999833e+00 1.250469999999999970e+00 5.103619999999999823e-01 7.079039999999999777e-01 3.429396000000000111e+00 5.365500000000000130e-02 -3.994429999999999925e-01 -3.670370000000000021e-01 -1.039469999999999977e-01 6.145589999999999664e-01 -7.566819999999999657e-01 -1.249449000000000032e+00 1.232601999999999975e+00 -2.144534999999999858e+00 2.389494000000000007e+00 -9.824659999999999505e-01 -1.434253000000000000e+00 1.657569999999999877e-01 -1.076352999999999893e+00 3.321700000000000208e-01 -2.122571000000000208e+00 2.573949999999999849e-01 -1.519803000000000015e+00 8.119079999999999631e-01 1.419464999999999977e+00 -5.514550000000000285e-01 -3.775990000000000180e+00 1.526618000000000031e+00 1.419629999999999947e+00 -6.227510000000000545e-01 -2.279675999999999814e+00 1.421343000000000023e+00 -2.270135999999999932e+00 -1.851529999999999898e+00 -3.792229999999999768e-01 2.102777999999999814e+00 9.314569999999999794e-01 -2.101974999999999927e+00 6.613609999999999767e-01 -1.987411000000000039e+00 -4.131610000000000005e-01 1.530089999999999950e+00 1.995408000000000071e+00 -4.204749999999999877e-01 1.828214000000000006e+00 9.025739999999999874e-01 -3.080979999999999830e-01 7.712090000000000334e-01 -6.501930000000000209e-01 -3.132590000000000097e-01 -1.502820000000000045e+00
1.515247000000000011e+00 2.032996999999999943e+00 1.495629000000000097e+00 5.773439999999999683e-01 -1.018426000000000053e+00 -4.200778999999999819e+00 -4.353350000000000275e-01 -2.414000000000000035e-01 -1.060281999999999947e+00 6.389759999999999884e-01 1.636292999999999997e+00 -8.730480000000000462e-01 1.806483000000000061e+00 1.614114999999999966e+00 1.511098999999999970e+00 5.160365999999999786e+00 -2.006679999999999797e+00 5.088441999999999688e+00 1.915151000000000048e+00 -4.231409000000000198e+00 1.639270000000000005e+00 4.725449999999999928e-01 1.671823000000000059e+00 1.539875000000000105e+00 3.910944000000000198e+00 -1.165780999999999956e+00 5.883779999999999566e-01 5.906430000000000291e-01 -1.924399999999999999e-01 1.293083999999999900e+00 6.143429999999999724e-01 1.146063000000000054e+00 -2.321038000000000157e+00 -6.427709999999999813e-01 -1.160371999999999959e+00 5.156969999999999610e-01 -4.192699999999999899e-02 2.022180000000000089e-01 -1.165159000000000056e+00 -2.107209999999999916e-01 2.217559000000000058e+00 -2.380600000000000077e-02 1.624101000000000017e+00 6.735250000000000403e-01 7.351750000000000229e-01 4.135229999999999739e-01 3.174839999999999884e-01 7.893719999999999626e-01 -2.355579999999999896e-01 2.194682999999999939e+00 2.376094000000000150e+00 -4.742680000000000229e-01 -1.034931999999999963e+00 -8.459689999999999710e-01 -4.036662999999999890e+00 1.187345000000000095e+00 9.650849999999999707e-01 -1.775392000000000081e+00 2.988077999999999790e+00 4.825019999999999865e-01 -2.588887000000000160e+00 -6.543609999999999705e-01 2.017101999999999951e+00 -1.022213000000000038e+00 -4.279709999999999903e-01 1.362692000000000014e+00 -1.147056999999999993e+00 -3.576233999999999913e+00 -8.417670000000000430e-01 1.250183999999999962e+00 6.402419999999999778e-01 -3.718190000000000106e-01 7.006400000000000405e-01 -3.765180000000000193e-01 -1.158109999999999973e-01 1.041201999999999961e+00 9.044830000000000370e-01 1.410687000000000024e+00 -1.831404999999999950e+00 -1.643423999999999996e+00 -1.914611999999999981e+00 -7.702729999999999855e-01 -2.572547999999999835e+00 -5.148730000000000251e-01 -7.046010000000000328e-01 -2.447060000000000013e+00 -7.042000000000000481e-01 1.791989000000000054e+00 -1.188604999999999912e+00 1.822103000000000028e+00 1.479020000000000057e-01 -1.175419999999999909e+00 -2.636321999999999832e+00 -9.629450000000000509e-01 1.802443999999999935e+00 -1.171211999999999920e+00 -1.477419999999999956e+00 3.230810000000000071e-01 1.198113999999999901e+00 -9.425970000000000182e-01 -8.661200000000000010e-01 -2.386209999999999998e-01 -2.307749999999999968e+00 1.223368000000000011e+00 1.614365999999999968e+00 -1.419999999999999929e+00 2.660959999999999992e-01 5.379760000000000097e-01 -1.874010000000000120e-01 -1.294237000000000082e+00 -2.257322999999999968e+00 1.106959999999999944e+00 1.606184999999999974e+00 -1.184749999999999970e+00 -1.325059999999999905e+00 3.044769999999999976e-01 2.572524000000000033e+00 1.114381999999999984e+00 -2.665693000000000090e+00 -1.139278999999999931e+00 -1.491835000000000022e+00 1.005006999999999984e+00 -5.352310000000000123e-01 9.652420000000000444e-01 2.018419999999999936e-01 2.988036000000000136e+00 6.728119999999999656e-01 7.259500000000000675e-02 -1.617561999999999944e+00 1.132713000000000081e+00 -4.770869999999999833e-01 -1.809341000000000088e+00 -1.189540000000000042e-01 1.237881999999999927e+00 1.236815999999999915e+00 -1.313220999999999972e+00 -3.130550000000000277e-01 5.770899999999999919e-01 2.286823000000000050e+00 1.477332000000000090e+00 -6.031060000000000310e-01 1.052187999999999901e+00 -2.055397000000000141e+00 -6.794759999999999689e-01 3.032250000000000223e-01 -1.530320000000000014e-01 -1.874943000000000026e+00 -5.745070000000000121e+00 4.290000000000000036e+00 -4.614476999999999940e+00 -5.865500000000000158e-01 1.028837999999999919e+00 1.686370000000000091e-01 2.498819000000000123e+00 -3.496659999999999768e-01 5.391569999999999974e-01 -5.361359999999999459e-01 -1.173443000000000014e+00 -6.135040000000000493e-01 -9.727369999999999628e-01 1.952599999999999891e-01 -1.136694000000000093e+00
-1.467054999999999998e+00 1.189697000000000005e+00 8.239049999999999985e-01 8.783950000000000369e-01 7.746859999999999857e-01 -4.113800000000000096e-02 -6.252659999999999885e-01 -1.839976999999999974e+00 -1.119707000000000008e+00 -7.689620000000000344e-01 -1.041438000000000086e+00 -8.741109999999999713e-01 -1.538791000000000020e+00 -5.536600000000000410e-01 -5.814770000000000216e-01 -1.528135999999999939e+00 -6.250099999999999545e-01 6.543179999999999552e-01 -8.688600000000000489e-02 9.706099999999999450e-02 6.538859999999999673e-01 9.342669999999999586e-01 -2.694340000000000068e-01 -1.133974000000000038e+00 -1.098904000000000103e+00 1.331503000000000103e+00 2.488424000000000191e+00 1.129536000000000096e+00 2.231288999999999856e+00 -8.147579999999999822e-01 -1.371250000000000080e+00 -1.011670000000000069e-01 -7.444269999999999499e-01 -5.981309999999999683e-01 -2.569812999999999903e+00 4.088939999999999797e-01 -7.865100000000000424e-01 -3.748559000000000196e+00 -3.467467000000000077e+00 -2.646255000000000024e+00 -3.793480000000000185e-01 1.865108999999999906e+00 7.030260000000000398e-01 -7.870679999999999898e-01 8.759569999999999856e-01 2.421699999999999894e-02 -1.089736000000000038e+00 1.289784000000000042e+00 -1.231808000000000014e+00 6.589799999999999824e-02 9.783739999999999659e-01 -1.589873000000000092e+00 -1.711322000000000010e+00 -9.573190000000000310e-01 -3.331195999999999824e+00 4.490089999999999915e-01 -1.238185000000000091e+00 -1.682393999999999945e+00 1.495681999999999956e+00 -7.098910000000000498e-01 -2.267240000000000089e-01 -1.514169000000000098e+00 2.461839999999999862e-01 1.657269000000000103e+00 6.267700000000000493e-01 1.821523999999999921e+00 -9.987829999999999764e-01 -2.382117000000000040e+00 4.158749999999999947e-01 7.438339999999999952e-01 -3.280210000000000070e-01 -1.269991000000000092e+00 -2.572539999999999827e-01 5.475349999999999939e-01 3.704299999999999954e-02 1.043414000000000064e+00 1.758747000000000060e+00 6.777500000000000191e-02 2.259164000000000172e+00 2.044829999999999981e-01 -8.129799999999999527e-02 -3.241658000000000150e+00 1.686763000000000012e+00 2.365645999999999916e+00 -1.023357999999999990e+00 2.176845999999999837e+00 -3.260219999999999785e-01 -5.286849999999999605e-01 -9.715179999999999927e-01 3.076139999999999985e-01 -1.295250999999999930e+00 6.537608999999999781e+00 3.619720000000000049e+00 2.481631999999999838e+00 1.003721000000000085e+00 -1.976100000000000079e-02 -1.069199999999999928e+00 1.001031000000000004e+00 -2.161919999999999842e+00 2.114243000000000094e+00 -1.201556999999999986e+00 -4.611799999999999927e-02 -9.479710000000000081e-01 -3.650586999999999804e+00 1.654674999999999896e+00 2.128708000000000045e+00 7.449489999999999723e-01 9.486630000000000340e-01 3.214529999999999887e+00 2.495970000000000133e-01 -1.433791000000000038e+00 1.015754999999999963e+00 2.479689000000000032e+00 -2.292670999999999903e+00 -2.664090000000000069e-01 -1.949357000000000006e+00 -4.569017999999999802e+00 2.942886000000000113e+00 2.666929999999999801e+00 -6.621749999999999581e-01 -2.151038999999999923e+00 -4.148229999999999973e-01 1.581339999999999968e-01 5.183069999999999622e-01 3.326067000000000107e+00 -1.964167999999999914e+00 7.600299999999999834e-01 -2.489828999999999848e+00 1.952398999999999996e+00 1.001454999999999984e+00 -1.985662000000000038e+00 1.007760000000000045e-01 4.853000000000000091e-01 5.289620000000000433e-01 2.380805000000000060e+00 -3.326709999999999945e-01 1.730550000000000033e+00 -2.880526999999999838e+00 -1.879619999999999902e-01 2.129833999999999783e+00 2.973787000000000180e+00 -4.798259999999999748e-01 1.160916999999999977e+00 -1.228005000000000013e+00 1.080780000000000074e+00 -1.156650000000000039e-01 -2.472627000000000130e+00 1.376576000000000022e+00 1.337485000000000035e+00 4.353699999999999792e-01 5.083349999999999813e-01 -1.551428999999999947e+00 -2.186660999999999966e+00 2.585539999999999949e+00 -2.638624000000000080e+00 3.421454000000000217e+00 1.631569999999999965e+00 -1.791493999999999920e+00 3.431932999999999900e+00 1.394420000000000104e-01 -1.831928999999999919e+00 -1.100821999999999967e+00
-1.050300000000000018e-02 -2.741622000000000003e+00 -1.144012000000000029e+00 -4.083220000000000183e-01 -2.781315000000000204e+00 4.955260000000000220e-01 2.151559999999999861e-01 7.199300000000000144e-02 6.076190000000000202e-01 -1.136163999999999952e+00 -1.163491999999999971e+00 -2.107867999999999853e+00 1.202504999999999935e+00 5.071649999999999769e-01 -9.148249999999999993e-01 -2.094857000000000191e+00 -1.334690000000000043e-01 8.765140000000000153e-01 1.923931000000000058e+00 -2.714779000000000053e+00 1.361674000000000051e+00 1.204533999999999994e+00 -8.351000000000000784e-03 -2.596490000000000187e-01 -2.047900000000000068e-02 -1.375256999999999952e+00 -2.308561999999999781e+00 2.157129999999999881e-01 -2.722053999999999974e+00 -8.645760000000000112e-01 3.649681000000000175e+00 9.202890000000000237e-01 -4.270630000000000259e-01 -1.253403000000000045e+00 1.681896000000000058e+00 -2.066727000000000203e+00 -8.233100000000000140e-02 1.162190000000000029e-01 2.348439999999999972e-01 -8.295550000000000423e-01 8.128599999999999715e-02 7.279369999999999452e-01 -5.118890000000000384e-01 2.182479999999999976e-01 5.900619999999999754e-01 -1.025946999999999942e+00 -2.845449999999999924e-01 -9.856200000000000516e-01 -3.384360000000000146e-01 1.687780000000000113e-01 -9.132299999999999862e-01 2.171559999999999879e-01 2.324517000000000166e+00 1.861917999999999962e+00 -2.801838000000000051e+00 -1.331375999999999893e+00 4.585569999999999924e-01 -4.595369999999999733e-01 -1.902741000000000016e+00 1.357099999999999973e-01 -2.673070000000000168e-01 2.809962000000000071e+00 1.718137000000000025e+00 1.090167000000000108e+00 1.858484999999999943e+00 -1.485349000000000030e+00 -1.594878999999999936e+00 2.239618999999999804e+00 -1.801549999999999985e+00 2.341194000000000219e+00 5.607325000000000337e+00 7.460213000000000427e+00 1.060815000000000063e+00 3.330443999999999960e+00 8.215999999999999345e-03 8.226250000000000506e-01 2.194878000000000107e+00 -9.607740000000000169e-01 1.444223000000000035e+00 -1.607777999999999929e+00 -1.474840000000000040e-01 -2.300714000000000148e+00 3.046400000000000149e-02 2.793550000000000200e-01 -3.210049000000000152e+00 -1.077684000000000086e+00 -4.664989999999999970e-01 2.658488000000000184e+00 2.333485000000000031e+00 5.494600000000000178e-02 1.977319999999999911e-01 1.659192999999999918e+00 -1.356174999999999908e+00 4.921694999999999709e+00 7.192659999999999609e-01 2.415819999999999912e-01 8.989080000000000403e-01 -1.124317999999999929e+00 1.320812000000000097e+00 1.366206000000000031e+00 1.548779999999999879e-01 2.621175000000000033e+00 -1.042310000000000042e-01 -1.275225999999999971e+00 1.747894999999999976e+00 -7.027400000000000313e-01 -1.573155999999999999e+00 3.419619999999999882e-01 2.993529999999999802e-01 -6.498119999999999452e-01 -2.601115000000000066e+00 2.932392000000000110e+00 -5.365710000000000202e-01 2.260161000000000087e+00 3.457339999999999858e-01 1.842462999999999962e+00 -3.586997000000000213e+00 -4.297606000000000037e+00 -8.884279999999999955e-01 2.132483000000000128e+00 7.915010000000000101e-01 1.630074999999999941e+00 1.999960000000000071e-01 -1.576024000000000092e+00 -1.298133999999999899e+00 -7.416490000000000027e-01 -4.158400000000000291e-02 -2.098289999999999877e-01 8.616679999999999895e-01 -1.079634999999999900e+00 -1.405715000000000048e+00 -8.233000000000000318e-01 3.099445999999999923e+00 -1.133772000000000002e+00 2.177330000000000099e-01 -3.634959999999999858e-01 -4.646989999999999732e-01 -2.264348000000000027e+00 1.168374000000000024e+00 -4.345716999999999608e+00 -2.065433000000000074e+00 -1.346835999999999922e+00 1.365224999999999911e+00 -3.368559999999999888e-01 5.706430000000000113e-01 2.371348999999999929e+00 1.740162999999999904e+00 -3.995192999999999994e+00 -6.767779999999999907e-01 1.090730000000000033e-01 1.751240000000000019e-01 -1.484167999999999932e+00 -1.283671000000000006e+00 -6.541600000000000192e-02 1.462670000000000081e-01 3.671039999999999859e-01 -4.768379999999999841e-01 -1.758379999999999943e-01 1.355499000000000009e+00 -2.417488000000000081e+00 7.028560000000000363e-01 -4.752009999999999845e-01