1.303606000000000087e+01 2.549819999999999975e+00 7.020690000000000097e+00 1.012696000000000041e+01 8.461499999999999577e-01 2.304330000000000211e+00 1.600657999999999959e+01 9.159800000000000608e+00 4.722830000000000084e+00 1.454362000000000066e+01 5.007690000000000197e+00 7.051949999999999719e+00 1.163987999999999978e+01 3.347350000000000048e+00 2.373699999999999921e+00 1.307008000000000081e+01 4.163770000000000415e+00 4.721269999999999634e+00 1.603117999999999910e+01 7.501669999999999838e+00 7.069119999999999848e+00 1.303917999999999999e+01 5.811309999999999754e+00 2.297439999999999927e+00 1.455447999999999986e+01 6.675139999999999851e+00 4.683519999999999683e+00 1.169683999999999990e+01 1.003203000000000067e+01 7.066950000000000287e+00 4.418490000000000251e+00 8.500600000000000378e-01 2.348959999999999937e+00 1.023907999999999952e+01 9.174519999999999342e+00 4.710449999999999804e+00 8.754360000000000142e+00 5.023489999999999789e+00 7.053829999999999600e+00 5.761289999999999800e+00 3.304699999999999971e+00 2.345000000000000195e+00 7.288870000000000182e+00 4.170950000000000379e+00 4.689029999999999809e+00 1.017178000000000004e+01 7.501960000000000406e+00 7.051929999999999588e+00 7.823830000000000062e+00 6.061919999999999753e+00 2.517770000000000064e+00 8.815229999999999677e+00 6.692700000000000315e+00 4.736379999999999590e+00 1.020866000000000007e+01 2.539320000000000022e+00 7.048939999999999984e+00 1.165527999999999942e+01 8.329169999999999519e+00 2.363599999999999923e+00 1.317159000000000013e+01 9.185299999999999798e+00 4.710950000000000415e+00 7.228469999999999729e+00 2.468780000000000197e+00 1.383000000000000028e-02 8.735099999999999199e+00 3.321540000000000159e+00 2.353509999999999991e+00 1.021948000000000079e+01 4.149230000000000196e+00 4.743170000000000108e+00 1.314268000000000036e+01 7.501120000000000232e+00 7.037099999999999689e+00 1.024147999999999925e+01 5.854449999999999932e+00 2.393720000000000070e+00 1.165848000000000084e+01 6.683519999999999683e+00 4.725850000000000328e+00 6.763370000000000104e+00 5.583669999999999689e+00 2.152989999999999959e+00 2.887589999999999879e+00 1.642879999999999896e+00 1.149170000000000025e+00 4.368019999999999570e+00 2.484570000000000167e+00 3.477219999999999978e+00 5.881109999999999616e+00 3.372840000000000060e+00 5.856650000000000134e+00 4.310319999999999929e+00 4.127419999999999867e+00 1.155499999999999972e+00 5.717889999999999695e+00 4.924310000000000187e+00 3.558650000000000091e+00 7.316550000000000331e+00 5.825650000000000439e+00 5.885229999999999961e+00 5.723040000000000127e+00 6.698159999999999670e+00 1.087569999999999926e+00 7.340670000000000250e+00 7.569440000000000168e+00 3.614110000000000156e+00 8.803100000000000591e+00 8.300230000000000885e+00 5.874690000000000190e+00 5.806980000000000253e+00 1.671010000000000106e+00 1.205529999999999990e+00 7.277739999999999654e+00 2.495190000000000019e+00 3.524500000000000188e+00 8.769550000000000622e+00 3.338309999999999889e+00 5.891309999999999825e+00 7.207709999999999617e+00 4.070149999999999935e+00 1.097839999999999927e+00 8.859180000000000277e+00 4.944619999999999571e+00 3.636210000000000164e+00 1.020397999999999961e+01 5.876739999999999853e+00 5.890509999999999913e+00 8.853450000000000486e+00 6.737359999999999793e+00 1.118929999999999980e+00 1.024018000000000050e+01 7.504520000000000302e+00 3.559019999999999850e+00 1.171157999999999966e+01 8.353410000000000224e+00 5.914970000000000283e+00 8.708800000000000097e+00 1.669559999999999933e+00 1.216029999999999944e+00 1.018027999999999977e+01 2.474720000000000031e+00 3.521020000000000039e+00 1.164188000000000045e+01 3.347240000000000215e+00 5.899860000000000326e+00 1.016398000000000046e+01 4.168280000000000207e+00 1.209230000000000027e+00 1.165507999999999988e+01 5.023229999999999862e+00 3.488100000000000200e+00 1.310247999999999990e+01 5.871979999999999755e+00 5.869539999999999758e+00 1.166938000000000031e+01 6.655630000000000379e+00 1.177780000000000049e+00 1.312337999999999916e+01 7.525839999999999641e+00 3.546920000000000073e+00 1.458417999999999992e+01 8.324210000000000775e+00 5.891610000000000014e+00
1.288756000000000057e+01 2.540379999999999860e+00 7.028800000000000381e+00 1.434106000000000058e+01 8.266420000000000101e+00 2.371090000000000142e+00 1.151404999999999923e+01 1.681890000000000107e+00 4.715300000000000047e+00 1.433431000000000033e+01 4.969739999999999824e+00 7.044539999999999580e+00 1.146526000000000067e+01 3.285730000000000040e+00 2.338649999999999896e+00 1.290956000000000081e+01 4.126380000000000159e+00 4.738019999999999676e+00 1.578130999999999950e+01 7.452600000000000335e+00 7.033470000000000333e+00 1.287055999999999933e+01 5.812719999999999665e+00 2.344359999999999999e+00 5.731180000000000163e+00 6.656310000000000393e+00 4.707110000000000127e+00 7.155199999999999783e+00 7.438430000000000319e+00 1.450000000000000074e-02 4.347209999999999575e+00 8.771499999999999853e-01 2.347640000000000171e+00 1.005236000000000018e+01 9.142960000000000420e+00 4.733469999999999622e+00 8.586890000000000356e+00 4.956129999999999924e+00 7.023399999999999643e+00 5.653229999999999755e+00 3.227959999999999940e+00 2.349610000000000198e+00 7.155300000000000438e+00 4.182349999999999568e+00 4.682030000000000136e+00 9.971349999999999270e+00 7.449230000000000018e+00 6.997300000000000075e+00 7.614770000000000039e+00 6.127819999999999823e+00 2.577650000000000219e+00 8.637510000000000687e+00 6.640119999999999578e+00 4.751509999999999678e+00 1.437795999999999985e+01 9.955439999999999401e+00 7.028609999999999580e+00 7.206479999999999997e+00 8.455799999999999983e-01 2.359249999999999847e+00 8.631880000000000663e+00 1.678520000000000012e+00 4.712659999999999627e+00 1.146335999999999977e+01 4.957580000000000098e+00 7.026620000000000310e+00 8.583140000000000214e+00 3.319890000000000008e+00 2.366359999999999797e+00 1.008256000000000085e+01 4.124189999999999579e+00 4.748179999999999623e+00 8.595290000000000319e+00 4.969669999999999810e+00 2.375999999999999987e-02 1.010585999999999984e+01 5.807900000000000063e+00 2.336100000000000065e+00 1.150985999999999976e+01 6.669290000000000163e+00 4.708129999999999704e+00 6.667910000000000004e+00 5.445739999999999803e+00 2.135810000000000208e+00 2.846620000000000150e+00 1.651710000000000012e+00 1.160469999999999891e+00 4.297380000000000422e+00 2.446950000000000180e+00 3.496529999999999916e+00 5.726440000000000197e+00 3.303209999999999980e+00 5.856410000000000338e+00 4.253490000000000215e+00 4.091549999999999798e+00 1.140220000000000011e+00 5.608410000000000117e+00 4.907910000000000217e+00 3.554689999999999905e+00 7.149009999999999643e+00 5.809689999999999799e+00 5.861509999999999998e+00 5.600419999999999732e+00 6.651320000000000121e+00 1.084549999999999903e+00 7.183239999999999625e+00 7.566130000000000244e+00 3.592900000000000205e+00 8.595850000000000435e+00 8.285560000000000258e+00 5.862800000000000011e+00 5.716050000000000075e+00 1.671450000000000102e+00 1.169829999999999925e+00 7.197149999999999714e+00 2.462899999999999867e+00 3.528589999999999893e+00 8.590970000000000439e+00 3.333050000000000068e+00 5.897910000000000430e+00 7.128770000000000273e+00 4.032449999999999868e+00 1.086459999999999981e+00 8.696289999999999409e+00 4.937490000000000379e+00 3.594770000000000021e+00 1.001776000000000089e+01 5.835259999999999891e+00 5.895340000000000025e+00 8.713089999999999336e+00 6.687059999999999782e+00 1.125569999999999959e+00 1.005136000000000074e+01 7.482619999999999827e+00 3.545100000000000140e+00 1.146446000000000076e+01 8.296340000000000714e+00 5.880840000000000067e+00 8.624190000000000467e+00 1.632540000000000102e+00 1.195100000000000051e+00 1.002726000000000006e+01 2.473970000000000002e+00 3.486349999999999838e+00 1.147395999999999994e+01 3.335189999999999877e+00 5.878779999999999895e+00 1.002655999999999992e+01 4.150859999999999772e+00 1.171790000000000109e+00 1.151285999999999987e+01 5.006370000000000431e+00 3.486359999999999904e+00 1.289846000000000004e+01 5.826819999999999666e+00 5.857370000000000410e+00 1.148175999999999952e+01 6.609989999999999810e+00 1.194790000000000019e+00 1.293675999999999959e+01 7.470449999999999591e+00 3.498959999999999848e+00 1.437086000000000041e+01 8.281660000000000466e+00 5.861469999999999736e+00
4.564530000000000420e+00 2.505619999999999958e+00 7.023080000000000211e+00 6.080169999999999852e+00 8.253339999999999677e+00 2.331599999999999895e+00 1.165271000000000079e+01 1.709410000000000096e+00 4.852149999999999963e+00 1.463837000000000010e+01 4.968270000000000408e+00 7.086339999999999861e+00 1.164347000000000065e+01 3.257039999999999935e+00 2.300330000000000208e+00 4.521069999999999922e+00 4.012150000000000105e+00 4.702530000000000321e+00 1.626796999999999827e+01 7.412630000000000052e+00 7.081159999999999677e+00 1.325066999999999950e+01 5.786859999999999893e+00 2.346989999999999910e+00 6.166940000000000310e+00 6.529399999999999871e+00 4.664729999999999599e+00 7.478860000000000063e+00 2.549440000000000150e+00 7.042919999999999625e+00 4.412060000000000315e+00 9.362800000000000011e-01 2.331630000000000091e+00 1.052276999999999951e+01 9.072829999999999728e+00 4.769890000000000185e+00 8.976720000000000255e+00 4.841560000000000308e+00 6.981169999999999654e+00 5.753029999999999866e+00 3.323300000000000143e+00 2.369889999999999830e+00 7.400979999999999670e+00 4.096490000000000187e+00 4.742539999999999978e+00 1.039797000000000082e+01 7.352870000000000239e+00 7.072709999999999830e+00 7.924179999999999779e+00 6.107099999999999973e+00 2.488510000000000222e+00 9.017640000000000100e+00 6.653730000000000366e+00 4.773189999999999600e+00 1.037320000000000064e+01 2.579870000000000108e+00 7.075359999999999872e+00 7.322479999999999656e+00 9.013499999999999845e-01 2.368090000000000028e+00 8.758509999999999351e+00 1.666560000000000041e+00 4.688299999999999912e+00 1.189973999999999954e+01 4.920919999999999739e+00 7.057129999999999903e+00 8.859970000000000567e+00 3.275399999999999867e+00 2.425060000000000215e+00 1.044827000000000083e+01 4.049529999999999852e+00 4.728410000000000224e+00 8.873900000000000787e+00 5.144479999999999720e+00 4.644999999999999823e-02 1.030807000000000073e+01 5.836190000000000211e+00 2.412139999999999951e+00 1.187757000000000041e+01 6.686350000000000016e+00 4.667370000000000019e+00 6.893229999999999968e+00 5.384470000000000312e+00 2.296780000000000044e+00 2.904819999999999958e+00 1.750189999999999912e+00 1.149110000000000076e+00 4.511739999999999640e+00 2.448020000000000085e+00 3.553139999999999965e+00 6.015150000000000219e+00 3.238550000000000040e+00 5.919500000000000206e+00 4.430810000000000137e+00 4.059750000000000192e+00 1.256680000000000019e+00 5.847209999999999575e+00 4.823380000000000223e+00 3.646850000000000147e+00 7.615990000000000038e+00 5.822530000000000427e+00 5.843079999999999607e+00 5.868109999999999715e+00 6.399709999999999788e+00 1.044650000000000079e+00 7.348010000000000375e+00 7.599090000000000344e+00 3.524890000000000079e+00 9.113210000000000477e+00 8.302720000000000766e+00 5.840419999999999945e+00 5.985809999999999853e+00 1.715160000000000018e+00 1.167310000000000070e+00 7.460650000000000226e+00 2.456980000000000164e+00 3.532880000000000020e+00 8.987669999999999604e+00 3.338900000000000201e+00 5.874929999999999986e+00 7.386639999999999873e+00 4.107610000000000205e+00 1.136789999999999967e+00 9.112679999999999225e+00 5.052769999999999762e+00 3.690519999999999801e+00 1.050017000000000067e+01 5.847859999999999836e+00 5.934549999999999770e+00 8.955289999999999750e+00 6.787919999999999732e+00 1.047919999999999963e+00 1.041347000000000023e+01 7.469179999999999708e+00 3.537990000000000190e+00 1.194557000000000002e+01 8.249439999999999884e+00 5.867919999999999803e+00 8.832599999999999341e+00 1.568640000000000034e+00 1.242510000000000003e+00 1.027177000000000007e+01 2.455439999999999845e+00 3.562710000000000043e+00 1.173187000000000069e+01 3.355890000000000040e+00 5.873579999999999579e+00 1.021817000000000064e+01 4.136190000000000033e+00 1.184500000000000108e+00 1.175867000000000040e+01 4.967950000000000088e+00 3.592989999999999906e+00 1.346166999999999980e+01 5.767579999999999707e+00 5.901779999999999582e+00 1.171166999999999980e+01 6.517999999999999794e+00 1.217300000000000049e+00 1.335886999999999958e+01 7.370350000000000179e+00 3.598829999999999973e+00 1.486707000000000001e+01 8.143299999999999983e+00 5.812070000000000292e+00
1.295419000000000054e+01 2.526120000000000143e+00 7.008060000000000400e+00 5.844369999999999621e+00 8.283749999999999503e+00 2.326999999999999957e+00 2.910540000000000127e+00 1.700439999999999952e+00 4.676370000000000360e+00 1.443180000000000085e+01 5.011050000000000004e+00 7.005510000000000126e+00 1.152448000000000050e+01 3.307700000000000085e+00 2.342319999999999958e+00 1.297367999999999988e+01 4.135469999999999757e+00 4.701959999999999695e+00 1.590878000000000014e+01 7.499060000000000059e+00 7.019560000000000244e+00 1.295298000000000016e+01 5.813329999999999664e+00 2.358470000000000066e+00 5.825459999999999638e+00 6.652160000000000295e+00 4.659980000000000011e+00 7.243979999999999642e+00 2.551489999999999814e+00 6.972970000000000113e+00 4.364530000000000243e+00 8.660999999999999810e-01 2.326430000000000220e+00 1.016688000000000081e+01 9.162940000000000751e+00 4.715379999999999683e+00 8.706160000000000565e+00 5.020410000000000039e+00 7.005390000000000228e+00 5.773590000000000444e+00 3.255360000000000031e+00 2.347890000000000033e+00 7.256829999999999892e+00 4.155969999999999942e+00 4.662670000000000314e+00 1.011027999999999949e+01 7.499950000000000117e+00 6.984930000000000305e+00 7.788660000000000139e+00 6.136999999999999567e+00 2.497199999999999864e+00 8.730629999999999669e+00 6.661550000000000082e+00 4.709529999999999994e+00 1.015808000000000000e+01 2.527480000000000171e+00 6.997969999999999580e+00 7.214669999999999916e+00 8.420600000000000307e-01 2.321530000000000094e+00 1.307437999999999967e+01 9.155739999999999768e+00 4.678840000000000110e+00 1.154407999999999923e+01 4.986460000000000115e+00 6.994189999999999685e+00 8.668609999999999260e+00 3.311170000000000169e+00 2.349499999999999922e+00 1.017178000000000004e+01 4.169970000000000176e+00 4.692199999999999704e+00 1.304058000000000028e+01 7.474579999999999558e+00 7.020129999999999981e+00 1.019758000000000031e+01 5.806770000000000209e+00 2.303350000000000009e+00 1.162298000000000009e+01 6.662639999999999674e+00 4.691959999999999908e+00 6.750799999999999912e+00 5.465760000000000396e+00 2.188460000000000072e+00 2.870379999999999932e+00 1.634319999999999995e+00 1.141229999999999967e+00 4.374649999999999928e+00 2.470650000000000013e+00 3.495109999999999939e+00 5.780059999999999754e+00 3.314470000000000027e+00 5.843639999999999723e+00 4.320280000000000342e+00 4.139750000000000263e+00 1.162360000000000060e+00 5.692230000000000345e+00 4.914889999999999759e+00 3.583969999999999878e+00 7.268570000000000420e+00 5.812409999999999854e+00 5.837539999999999729e+00 5.716990000000000016e+00 6.641479999999999606e+00 1.123660000000000103e+00 7.279860000000000220e+00 7.569569999999999688e+00 3.574139999999999873e+00 8.707890000000000796e+00 8.289270000000000138e+00 5.827820000000000000e+00 5.767330000000000290e+00 1.639950000000000019e+00 1.188560000000000061e+00 7.242869999999999919e+00 2.512739999999999974e+00 3.523489999999999789e+00 8.645279999999999632e+00 3.341169999999999973e+00 5.826660000000000394e+00 7.219430000000000014e+00 4.042720000000000091e+00 1.103140000000000009e+00 8.796689999999999898e+00 4.974739999999999718e+00 3.576480000000000103e+00 1.012728000000000073e+01 5.841160000000000352e+00 5.878160000000000274e+00 8.826529999999999987e+00 6.673309999999999853e+00 1.064619999999999900e+00 1.019707999999999970e+01 7.501599999999999824e+00 3.494019999999999904e+00 1.161247999999999969e+01 8.336639999999999162e+00 5.863349999999999618e+00 8.636760000000000659e+00 1.687999999999999945e+00 1.148779999999999912e+00 1.009287999999999919e+01 2.488799999999999901e+00 3.494050000000000100e+00 1.155007999999999946e+01 3.324720000000000120e+00 5.850900000000000212e+00 1.013847999999999949e+01 4.155100000000000016e+00 1.183550000000000102e+00 1.156578000000000017e+01 5.026640000000000441e+00 3.493720000000000159e+00 1.303958000000000084e+01 5.845170000000000421e+00 5.859490000000000087e+00 1.159628000000000014e+01 6.619690000000000296e+00 1.182409999999999961e+00 1.301678000000000068e+01 7.491769999999999818e+00 3.504669999999999952e+00 1.450117999999999974e+01 8.324980000000000047e+00 5.856460000000000221e+00
1.305104000000000042e+01 7.413260000000000183e+00 2.821999999999999856e-02 5.970780000000000420e+00 8.226050000000000750e+00 2.338189999999999991e+00 1.149924000000000035e+01 1.738949999999999996e+00 4.633630000000000138e+00 1.000924000000000014e+01 2.499730000000000008e+00 2.883000000000000146e-02 1.154950000000000010e+01 3.377489999999999881e+00 2.359680000000000000e+00 1.305405000000000015e+01 4.161509999999999820e+00 4.705930000000000391e+00 1.600560000000000116e+01 7.434409999999999741e+00 6.967480000000000118e+00 1.293579000000000079e+01 5.676219999999999821e+00 2.232270000000000199e+00 1.454659999999999975e+01 6.743310000000000137e+00 4.687400000000000233e+00 7.283409999999999940e+00 2.578120000000000189e+00 6.970080000000000275e+00 8.889939999999999287e+00 8.273989999999999512e+00 2.331300000000000150e+00 5.790160000000000196e+00 1.692819999999999991e+00 4.615050000000000097e+00 4.237599999999999589e+00 2.533119999999999816e+00 4.358000000000000068e-02 5.806180000000000341e+00 3.265839999999999854e+00 2.330429999999999779e+00 7.280009999999999870e+00 4.149110000000000298e+00 4.595679999999999765e+00 1.031269999999999953e+01 7.361170000000000435e+00 6.962690000000000268e+00 7.723919999999999675e+00 6.075470000000000148e+00 2.463389999999999969e+00 8.884290000000000020e+00 6.591669999999999696e+00 4.674870000000000303e+00 1.019969999999999999e+01 2.547590000000000021e+00 6.903150000000000119e+00 7.251660000000000217e+00 8.906399999999999872e-01 2.242570000000000174e+00 1.309839999999999982e+01 9.106759999999999522e+00 4.664100000000000357e+00 1.170664000000000016e+01 4.952250000000000263e+00 6.889859999999999651e+00 8.751820000000000377e+00 3.269810000000000105e+00 2.393110000000000070e+00 1.022300000000000075e+01 4.151709999999999567e+00 4.638499999999999623e+00 8.780659999999999243e+00 4.925779999999999603e+00 9.052999999999999936e-02 1.022279999999999944e+01 5.922489999999999810e+00 2.238109999999999822e+00 1.175459999999999994e+01 6.561939999999999884e+00 4.583339999999999748e+00 6.805699999999999861e+00 5.375040000000000262e+00 2.084449999999999914e+00 2.905710000000000015e+00 1.731279999999999930e+00 1.165329999999999977e+00 4.402619999999999756e+00 2.441879999999999828e+00 3.375070000000000014e+00 5.841479999999999784e+00 3.347999999999999865e+00 5.816740000000000244e+00 4.328050000000000175e+00 4.128009999999999735e+00 1.124740000000000073e+00 5.737800000000000011e+00 4.826469999999999594e+00 3.504910000000000192e+00 7.295209999999999972e+00 5.863109999999999822e+00 5.839929999999999843e+00 5.874209999999999710e+00 6.564779999999999838e+00 1.025719999999999965e+00 7.390970000000000262e+00 7.599059999999999704e+00 3.625589999999999868e+00 8.904579999999999274e+00 8.277919999999999945e+00 5.809899999999999842e+00 5.877600000000000158e+00 1.718040000000000012e+00 1.196630000000000082e+00 7.307310000000000194e+00 2.500690000000000079e+00 3.478699999999999903e+00 8.710190000000000765e+00 3.331550000000000011e+00 5.856290000000000440e+00 7.260169999999999568e+00 3.972669999999999924e+00 1.014250000000000096e+00 8.832789999999999253e+00 4.955079999999999707e+00 3.599310000000000009e+00 1.020839999999999925e+01 5.806670000000000442e+00 5.787219999999999587e+00 8.863770000000000593e+00 6.732669999999999710e+00 1.079360000000000097e+00 1.033319999999999972e+01 7.428160000000000096e+00 3.425510000000000055e+00 1.170899999999999963e+01 8.205399999999999139e+00 5.711280000000000356e+00 8.710309999999999775e+00 1.546189999999999953e+00 1.194979999999999931e+00 1.005369999999999919e+01 2.530229999999999979e+00 3.464030000000000165e+00 1.159590000000000032e+01 3.410639999999999894e+00 5.840530000000000221e+00 1.009159999999999968e+01 4.159720000000000084e+00 1.274820000000000064e+00 1.156199999999999939e+01 4.887669999999999959e+00 3.504160000000000164e+00 1.316980000000000040e+01 5.855739999999999945e+00 5.910989999999999966e+00 1.168619999999999948e+01 6.561630000000000074e+00 1.212069999999999981e+00 1.314409999999999989e+01 7.350279999999999703e+00 3.455919999999999881e+00 1.459810000000000052e+01 8.271280000000000854e+00 5.862759999999999749e+00
4.384120000000000239e+00 2.659839999999999982e+00 7.122049999999999770e+00 1.440291999999999994e+01 8.324590000000000600e+00 2.425739999999999785e+00 7.278850000000000264e+00 9.186540000000000816e+00 4.767610000000000348e+00 1.439667999999999992e+01 5.124060000000000059e+00 7.097629999999999661e+00 1.158970000000000056e+01 3.330639999999999823e+00 2.326020000000000199e+00 4.332239999999999647e+00 4.083999999999999631e+00 4.658900000000000041e+00 7.140819999999999723e+00 7.540759999999999685e+00 7.083330000000000126e+00 1.298090000000000011e+01 5.919900000000000162e+00 2.307620000000000005e+00 5.747740000000000293e+00 6.609569999999999723e+00 4.795399999999999885e+00 7.251890000000000391e+00 2.628350000000000186e+00 6.916540000000000354e+00 4.312689999999999912e+00 9.074200000000000044e-01 2.259780000000000122e+00 1.019543999999999961e+01 9.116949999999999221e+00 4.837360000000000326e+00 8.695349999999999469e+00 5.229309999999999903e+00 7.067919999999999980e+00 5.784659999999999691e+00 3.091040000000000010e+00 2.446759999999999824e+00 7.268270000000000231e+00 4.231729999999999769e+00 4.703330000000000233e+00 1.005523999999999951e+01 7.555410000000000181e+00 7.133180000000000298e+00 7.578700000000000436e+00 6.266980000000000217e+00 2.447459999999999969e+00 8.620540000000000092e+00 6.779069999999999929e+00 4.686309999999999754e+00 6.054009999999999891e+00 1.852699999999999902e-01 6.494999999999999385e-02 1.156827999999999967e+01 8.301809999999999690e+00 2.423620000000000108e+00 1.320297000000000054e+01 9.140689999999999316e+00 4.878519999999999968e+00 7.390320000000000000e+00 2.512929999999999886e+00 7.216999999999999804e-02 8.702809999999999491e+00 3.272580000000000044e+00 2.357509999999999994e+00 1.010510000000000019e+01 4.180729999999999613e+00 4.711140000000000327e+00 1.314429999999999943e+01 7.669360000000000177e+00 6.993420000000000414e+00 1.018069999999999986e+01 5.830149999999999721e+00 2.393909999999999982e+00 1.164429999999999943e+01 6.622250000000000192e+00 4.807489999999999597e+00 6.709740000000000038e+00 5.418199999999999683e+00 2.281050000000000022e+00 2.864819999999999922e+00 1.802799999999999958e+00 1.279050000000000020e+00 4.206610000000000404e+00 2.469599999999999795e+00 3.561939999999999884e+00 5.736320000000000086e+00 3.311030000000000140e+00 5.904639999999999667e+00 4.173239999999999839e+00 4.235330000000000261e+00 1.220169999999999977e+00 5.571869999999999656e+00 5.105310000000000237e+00 3.630970000000000031e+00 7.287209999999999965e+00 5.754699999999999704e+00 5.929940000000000211e+00 5.603019999999999889e+00 6.639560000000000350e+00 1.279979999999999896e+00 7.170849999999999724e+00 7.692400000000000126e+00 3.610320000000000196e+00 8.691209999999999880e+00 8.188129999999999242e+00 5.894090000000000273e+00 5.798619999999999663e+00 1.673210000000000086e+00 1.010769999999999946e+00 7.198730000000000295e+00 2.462650000000000006e+00 3.457329999999999792e+00 8.647389999999999688e+00 3.367799999999999905e+00 5.919579999999999842e+00 6.992029999999999745e+00 3.866200000000000081e+00 1.258539999999999992e+00 8.626099999999999213e+00 5.035969999999999835e+00 3.637550000000000061e+00 1.011609999999999943e+01 5.860689999999999955e+00 5.927500000000000213e+00 8.729200000000000514e+00 6.788509999999999600e+00 1.033109999999999973e+00 1.021739999999999959e+01 7.536739999999999995e+00 3.561319999999999819e+00 1.151880000000000059e+01 8.370919999999999916e+00 6.087970000000000326e+00 8.821429999999999438e+00 1.668150000000000022e+00 1.224369999999999958e+00 1.003486999999999973e+01 2.618840000000000057e+00 3.555009999999999781e+00 1.156470000000000020e+01 3.290059999999999985e+00 6.018150000000000333e+00 1.003499000000000052e+01 4.186049999999999827e+00 1.050459999999999949e+00 1.139879999999999960e+01 5.032320000000000348e+00 3.542780000000000040e+00 1.305180000000000007e+01 5.824169999999999625e+00 5.933460000000000178e+00 1.152319999999999922e+01 6.600889999999999702e+00 1.267099999999999893e+00 1.313260000000000005e+01 7.538420000000000343e+00 3.606269999999999865e+00 1.454359999999999964e+01 8.375909999999999300e+00 5.879349999999999632e+00
1.743230000000000146e+01 9.952999999999999403e+00 7.031859999999999999e+00 5.849809999999999732e+00 8.262380000000000280e+00 2.348399999999999821e+00 1.160637000000000008e+01 1.686949999999999950e+00 4.733439999999999870e+00 1.444973000000000063e+01 4.988599999999999923e+00 7.010159999999999947e+00 1.157812999999999981e+01 3.300879999999999814e+00 2.333990000000000009e+00 1.304743000000000031e+01 4.125000000000000000e+00 4.735120000000000218e+00 1.595762999999999998e+01 7.443710000000000271e+00 7.016259999999999941e+00 1.297723000000000049e+01 5.796990000000000087e+00 2.344549999999999912e+00 5.832510000000000083e+00 6.605850000000000222e+00 4.648089999999999833e+00 1.165380000000000038e+01 9.953780000000000072e+00 7.026130000000000209e+00 4.362029999999999852e+00 8.737899999999999556e-01 2.324539999999999829e+00 1.019602000000000075e+01 9.123219999999999885e+00 4.680979999999999919e+00 8.662459999999999383e+00 4.988529999999999909e+00 7.040910000000000224e+00 5.765789999999999971e+00 3.249890000000000168e+00 2.347560000000000091e+00 7.251599999999999824e+00 4.136300000000000310e+00 4.695120000000000182e+00 1.014633000000000074e+01 7.459889999999999688e+00 6.965580000000000105e+00 7.817190000000000083e+00 6.091999999999999638e+00 2.551790000000000003e+00 8.751540000000000319e+00 6.676919999999999966e+00 4.774339999999999584e+00 1.016802999999999990e+01 7.451839999999999797e+00 1.752000000000000085e-02 1.162392999999999965e+01 8.296039999999999637e+00 2.380700000000000038e+00 1.309313000000000038e+01 9.117419999999999192e+00 4.683989999999999654e+00 1.160453000000000046e+01 4.957910000000000039e+00 7.017509999999999692e+00 8.663109999999999644e+00 3.326600000000000001e+00 2.363430000000000142e+00 1.014912999999999954e+01 4.147910000000000430e+00 4.671920000000000073e+00 8.661960000000000548e+00 4.992680000000000007e+00 1.617000000000000035e-02 1.023662999999999990e+01 5.784469999999999779e+00 2.329540000000000166e+00 1.165323000000000064e+01 6.644059999999999633e+00 4.688480000000000203e+00 6.762470000000000425e+00 5.541450000000000209e+00 2.143279999999999852e+00 2.881489999999999885e+00 1.620270000000000099e+00 1.182239999999999958e+00 4.379369999999999763e+00 2.491760000000000197e+00 3.476269999999999971e+00 5.808950000000000280e+00 3.314569999999999794e+00 5.848810000000000286e+00 4.312850000000000072e+00 4.127030000000000420e+00 1.142269999999999897e+00 5.718779999999999752e+00 4.903529999999999944e+00 3.585949999999999971e+00 7.243929999999999758e+00 5.811689999999999579e+00 5.824279999999999902e+00 5.700510000000000410e+00 6.652300000000000324e+00 1.073099999999999943e+00 7.312890000000000335e+00 7.561770000000000103e+00 3.609189999999999898e+00 8.733769999999999811e+00 8.283860000000000667e+00 5.859210000000000029e+00 5.780289999999999928e+00 1.660840000000000094e+00 1.188339999999999952e+00 7.239150000000000418e+00 2.484519999999999840e+00 3.503000000000000114e+00 8.681649999999999423e+00 3.299879999999999924e+00 5.869580000000000020e+00 7.226639999999999731e+00 4.023649999999999949e+00 1.090319999999999956e+00 8.826180000000000803e+00 4.932000000000000384e+00 3.618669999999999831e+00 1.012653000000000070e+01 5.835069999999999979e+00 5.846720000000000361e+00 8.823059999999999903e+00 6.666150000000000020e+00 1.102840000000000042e+00 1.018642999999999965e+01 7.469590000000000174e+00 3.531899999999999817e+00 1.162973000000000035e+01 8.300019999999999953e+00 5.883740000000000414e+00 8.703430000000000888e+00 1.638300000000000090e+00 1.186730000000000063e+00 1.014403000000000077e+01 2.467950000000000088e+00 3.510200000000000209e+00 1.158843000000000067e+01 3.312269999999999825e+00 5.857179999999999609e+00 1.011433000000000071e+01 4.135849999999999582e+00 1.158120000000000038e+00 1.160743000000000080e+01 4.981460000000000221e+00 3.483769999999999811e+00 1.304603000000000002e+01 5.819630000000000081e+00 5.868590000000000195e+00 1.161733000000000082e+01 6.616729999999999556e+00 1.178279999999999994e+00 1.308173000000000030e+01 7.451100000000000279e+00 3.510720000000000063e+00 1.448312999999999917e+01 8.282109999999999417e+00 5.870459999999999567e+00