8.000530000000000141e-01 -5.540960000000000329e-01 5.736590000000000300e-01 5.950929999999999831e-01 -5.022189999999999710e-01 6.388660000000000450e-01 3.169910000000000228e-01 5.423399999999999749e-02 -3.571849999999999747e-01 3.569780000000000175e-01 2.057160000000000100e-01 4.822699999999999904e-02 -7.229430000000000023e-01 -5.723570000000000046e-01 -2.959649999999999781e-01 9.394099999999999673e-02 2.332019999999999926e-01 -2.336070000000000091e-01 -4.623039999999999927e-01 3.910199999999999787e-02 -2.163019999999999943e-01 -7.895569999999999533e-01 4.341849999999999876e-01 7.098550000000000137e-01 2.968649999999999900e-01 -1.430839999999999890e-01 -1.849069999999999880e-01 2.323340000000000127e-01 -3.421120000000000272e-01 2.453999999999999931e-02 -4.458710000000000173e-01 9.211019999999999763e-01 2.304700000000000151e-02 2.137969999999999871e-01 2.553230000000000222e-01 1.346930000000000072e-01 -1.887770000000000004e-01 -3.871339999999999781e-01 -3.542599999999999916e-02 1.473480000000000067e-01 -9.515879999999999894e-01 3.047899999999999915e-02 2.027529999999999888e-01 1.420349999999999946e-01 -5.041999999999999954e-02 2.032289999999999930e-01 -2.371830000000000049e-01 -1.088815000000000088e+00 6.177264000000000088e+00 2.932263999999999982e+00 2.367382999999999793e+00 -1.574909999999999921e-01 -3.651000000000000165e-03 7.834670000000000245e-01 -6.395599999999999896e-02 -3.918260000000000076e-01 1.836969999999999992e-01 5.099240000000000439e-01 2.634580000000000255e-01 6.671699999999999853e-02 -4.688200000000000145e-01 -1.011559999999999959e-01 4.309000000000000330e-03 2.560000000000000123e-02 3.477799999999999780e-01 -1.930689999999999906e-01 -3.055229999999999890e-01 3.604399999999999826e-01 9.144199999999999551e-02 -1.583219999999999905e-01 2.095120000000000038e-01 -2.639989999999999837e-01 -2.783340000000000258e-01 3.699799999999999756e-01 6.446479999999999988e-01 9.078920000000000323e-01 -4.633869999999999933e-01 -6.001250000000000195e-01 4.838580000000000103e-01 -4.365299999999999736e-02 6.910999999999999609e-03 -6.009095000000000297e+00 -2.801959999999999784e+00 -1.851814000000000071e+00 2.116240000000000065e-01 -3.073000000000000037e-02 1.854540000000000077e-01 2.414709999999999912e-01 -1.602820000000000078e-01 4.545770000000000088e-01 -6.356789999999999941e-01 -4.666839999999999877e-01 2.133309999999999929e-01 6.034119999999999484e-01 3.741619999999999946e-01 -2.822999999999999989e-03 -7.672900000000000553e-02 -1.915400000000000089e-02 -3.405880000000000019e-01 -4.393400000000000083e-02 2.546269999999999922e-01 -6.046399999999999691e-02 -4.530319999999999903e-01 -2.495940000000000103e-01 -3.725570000000000270e-01 6.280820000000000292e-01 4.977299999999999780e-02 -2.307970000000000022e-01 -1.253100000000000047e-02 4.593459999999999765e-01 1.134970000000000007e-01 -2.007299999999999918e-01 -4.108300000000000146e-02 -2.903599999999999931e-02 -3.113009999999999944e-01 7.749899999999999844e-02 3.949500000000000233e-02 -1.372250000000000136e-01 9.829599999999999449e-02 6.612500000000000322e-02 -3.677369999999999806e-01 -1.268080000000000040e-01 -9.329000000000000486e-03 -1.050340000000000024e-01 6.953510000000000524e-01 -3.850120000000000209e-01 2.324999999999999810e-03 -5.572699999999999876e-02 1.696940000000000115e-01 2.055240000000000122e-01 1.675909999999999900e-01 5.121820000000000261e-01 -2.118420000000000025e-01 8.653600000000000181e-02 -3.103079999999999727e-01 -5.661990000000000078e-01 4.384699999999999709e-02 -1.557769999999999988e-01 -2.919700000000000073e-01 -3.359499999999999986e-02 -7.570710000000000495e-01 1.589369999999999949e-01 2.025270000000000126e-01 1.508569999999999911e-01 1.735349999999999948e-01 -1.139000000000000082e-02 -1.632190000000000030e-01 -8.752699999999999370e-02 1.075929999999999942e-01 -3.323189999999999755e-01 -4.090300000000000186e-02 2.961499999999999896e-02 3.108710000000000084e-01 1.029159999999999936e-01 -4.541169999999999929e-01 2.381379999999999886e-01 -3.937789999999999901e-01 1.409000000000000096e-03 8.852400000000000546e-02 -1.622129999999999961e-01 -3.669299999999999784e-01 -3.843530000000000002e-01 2.576149999999999829e-01 9.499399999999999511e-02 3.060300000000000173e-02
7.279259999999999620e-01 -8.536049999999999471e-01 4.610730000000000106e-01 3.765740000000000198e-01 9.118199999999999916e-02 -5.476600000000000357e-01 1.744759999999999922e-01 -4.184649999999999759e-01 -3.486319999999999975e-01 2.582949999999999968e-01 7.525900000000000645e-02 1.896960000000000035e-01 1.027850000000000014e-01 1.457869999999999999e-01 -9.118900000000000616e-02 3.076189999999999758e-01 4.423980000000000135e-01 -8.445749999999999647e-01 1.212540000000000007e-01 7.676800000000000290e-02 1.760430000000000050e-01 -5.822300000000000253e-01 -2.144800000000000040e-01 -1.237670000000000020e-01 -3.567339999999999955e-01 -3.586110000000000131e-01 -3.435529999999999973e-01 -1.452100000000000057e-01 6.956299999999999983e-02 1.472690000000000110e-01 5.294200000000000295e-02 7.986100000000000143e-02 -4.886599999999999971e-02 -2.556200000000000139e-01 -1.855850000000000000e-01 -3.246269999999999989e-01 -2.103470000000000062e-01 1.338050000000000073e-01 3.680100000000000038e-01 9.026599999999999902e-02 9.659500000000000031e-02 -1.696789999999999965e-01 3.176899999999999863e-02 -3.891350000000000087e-01 -8.540999999999999981e-03 -1.951789999999999914e-01 1.973499999999999907e-02 -1.900570000000000037e-01 4.087110000000000021e+00 2.290129999999999999e+00 1.057509000000000032e+00 3.854770000000000141e-01 4.027049999999999796e-01 2.104459999999999942e-01 -5.598750000000000115e-01 7.990400000000000280e-02 4.725059999999999816e-01 -1.743949999999999945e-01 -1.772219999999999906e-01 -7.107499999999999929e-02 -6.889599999999999891e-02 -1.021600000000000008e-01 -4.634800000000000031e-02 -9.130000000000000615e-02 6.032889999999999642e-01 4.682259999999999756e-01 2.253449999999999898e-01 1.125390000000000001e-01 -1.940459999999999963e-01 -6.052159999999999762e-01 5.377290000000000125e-01 -8.653300000000000436e-01 -6.257899999999999574e-02 -8.857999999999999555e-03 -1.142750000000000016e-01 4.954459999999999975e-01 -1.036129999999999968e-01 3.458089999999999775e-01 -2.013270000000000060e-01 -2.960720000000000018e-01 -7.347700000000000065e-02 -3.636751999999999985e+00 -2.007544000000000217e+00 -1.726412000000000058e+00 -2.067740000000000133e-01 -1.626960000000000073e-01 1.632720000000000005e-01 -2.947239999999999860e-01 5.353560000000000541e-01 3.340699999999999781e-01 -2.086010000000000086e-01 5.374510000000000121e-01 1.838049999999999962e-01 -1.062830000000000025e-01 4.664360000000000173e-01 3.279819999999999958e-01 -4.249160000000000159e-01 -1.016650000000000054e-01 2.814869999999999872e-01 -2.433190000000000075e-01 7.021299999999999764e-02 -1.413510000000000044e-01 -1.427529999999999910e-01 -3.916359999999999841e-01 3.392760000000000220e-01 -2.017670000000000019e-01 3.830910000000000148e-01 5.111210000000000475e-01 -3.296979999999999911e-01 1.330699999999999938e-02 1.597000000000000086e-01 3.390599999999999725e-01 -4.141610000000000014e-01 1.918610000000000038e-01 -3.497689999999999966e-01 4.273029999999999884e-01 -2.665999999999999967e-02 2.624750000000000139e-01 -2.869650000000000256e-01 -4.821039999999999770e-01 1.452519999999999922e-01 -4.033860000000000223e-01 -1.281289999999999929e-01 4.264149999999999885e-01 3.467620000000000147e-01 1.206060000000000049e-01 1.270749999999999935e-01 -2.902040000000000175e-01 -5.984490000000000087e-01 5.205100000000000005e-02 -2.273540000000000005e-01 3.963940000000000241e-01 9.491499999999999937e-02 -2.955090000000000217e-01 -2.051850000000000063e-01 2.605459999999999998e-01 2.026100000000000123e-02 1.255179999999999907e-01 -6.121299999999999658e-02 2.484820000000000084e-01 -4.558450000000000002e-01 4.554779999999999940e-01 2.635460000000000025e-01 5.955009999999999470e-01 1.835050000000000014e-01 -2.192429999999999934e-01 -2.211440000000000072e-01 1.531639999999999946e-01 -1.071679999999999994e-01 -4.720300000000000190e-02 -4.252699999999999814e-01 -3.602199999999999847e-01 2.799929999999999919e-01 4.483119999999999883e-01 -1.815930000000000044e-01 1.983499999999999985e-01 1.254000000000000080e-02 5.825600000000000223e-02 -1.972849999999999882e-01 -7.607500000000000373e-02 -2.577980000000000271e-01 4.180440000000000267e-01 -1.812499999999999944e-01 1.872379999999999878e-01 1.118989999999999985e-01
-2.387160000000000115e-01 -1.300689999999999902e+00 8.978030000000000177e-01 -1.163186999999999971e+00 -4.222999999999999671e-02 5.612690000000000179e-01 9.868240000000000345e-01 -1.754699999999999926e+00 -2.237283999999999828e+00 1.763762000000000052e+00 1.444920000000000093e-01 3.959369999999999834e-01 6.669089999999999741e-01 1.257306999999999952e+00 7.082540000000000502e-01 -9.750069999999999570e-01 1.700657000000000085e+00 3.847949999999999982e-01 -6.721000000000000411e-03 -5.120000000000000245e-02 2.736330000000000151e-01 -1.982561000000000018e+00 7.720000000000000299e-03 3.586010000000000031e-01 -2.208452999999999999e+00 1.113207000000000058e+00 7.874579999999999913e-01 -8.525319999999999565e-01 -1.199116000000000071e+00 5.284809999999999786e-01 4.193060000000000120e-01 -1.624939999999999996e-01 8.736949999999999994e-01 -6.429150000000000142e-01 6.554000000000000103e-02 -8.495329999999999826e-01 -3.219540000000000179e-01 2.691669000000000089e+00 1.000153999999999987e+00 1.335010000000000030e+00 -2.024894000000000194e+00 -3.714560000000000084e-01 8.466780000000000417e-01 5.640370000000000106e-01 -4.457340000000000191e-01 6.644269999999999898e-01 3.339150000000000174e-01 -9.589389999999999858e-01 2.890928999999999860e+00 2.249622000000000011e+00 1.205829999999999957e+00 1.030140000000000056e+00 3.107199999999999893e-02 6.096059999999999812e-01 4.820229999999999793e-01 -1.094951999999999925e+00 7.019800000000000484e-01 2.122239999999999960e-01 -1.070294000000000079e+00 -2.209190000000000043e-01 1.995452999999999921e+00 -1.285678000000000099e+00 4.477019999999999889e-01 -1.051779999999999937e-01 1.876945000000000086e+00 2.314899999999999944e-02 -5.839849999999999763e-01 9.802389999999999715e-01 -8.700499999999999901e-01 -1.360900999999999916e+00 2.238951000000000136e+00 -8.616930000000000422e-01 -6.473430000000000017e-01 -2.632966000000000140e+00 -1.161901999999999990e+00 2.509443000000000090e+00 -4.116549999999999931e-01 -8.712000000000000299e-02 7.659740000000000437e-01 -1.593444000000000083e+00 1.129971999999999976e+00 -1.642400000000000082e+00 -2.387039999999999995e-01 -1.303749999999999964e+00 5.315990000000000437e-01 -1.757031999999999927e+00 -5.452129999999999477e-01 -6.308639999999999803e-01 -4.175409999999999955e-01 -5.941030000000000477e-01 2.819550000000000112e-01 6.175040000000000529e-01 5.701169999999999849e-01 -8.423159999999999537e-01 3.376850000000000129e-01 -1.073253000000000013e+00 6.082840000000000469e-01 -3.736559999999999881e-01 -3.759919999999999929e-01 -9.107099999999999917e-02 -7.252830000000000110e-01 6.571810000000000151e-01 -5.369580000000000464e-01 2.338566999999999840e+00 4.438980000000000148e-01 2.865709999999999980e+00 -3.261229999999999962e-01 -2.087650000000000061e-01 -1.586036000000000001e+00 -1.983789999999999998e-01 9.991989999999999483e-01 -1.703864999999999963e+00 -6.972159999999999469e-01 3.664279999999999760e-01 -7.851820000000000466e-01 8.403370000000000006e-01 2.856099999999999750e-01 -1.674611000000000072e+00 -1.008509000000000100e+00 5.356980000000000075e-01 1.017480000000000051e-01 -1.703271999999999897e+00 -8.628980000000000539e-01 -2.013472000000000151e+00 -2.734119999999999884e-01 -1.042724999999999902e+00 -1.092378999999999989e+00 -3.567000000000000171e-01 4.230599999999999916e-01 -3.914730000000000154e-01 6.650519999999999765e-01 8.635340000000000238e-01 -5.165600000000000191e-01 7.906659999999999799e-01 -6.666879999999999473e-01 4.303660000000000263e-01 1.331320999999999977e+00 5.724230000000000151e-01 -1.038089999999999985e-01 -1.660359999999999892e-01 -8.472359999999999891e-01 1.846820000000000128e-01 8.354699999999999627e-02 -7.881050000000000555e-01 2.019322999999999979e+00 -1.545144999999999991e+00 1.504815999999999931e+00 4.039869999999999850e-01 -1.372089999999999976e-01 8.714600000000000124e-02 1.181143000000000054e+00 -4.064450000000000007e-01 -1.397542999999999980e+00 -1.248701999999999979e+00 -6.226049999999999640e-01 4.752770000000000050e-01 9.598210000000000353e-01 8.747909999999999853e-01 -8.913919999999999622e-01 -3.519479999999999831e-01 7.648470000000000546e-01 -1.894992999999999927e+00 1.633769999999999945e-01 1.677885999999999989e+00 1.884584000000000037e+00
4.741549999999999931e-01 -1.829800000000000038e-01 3.136700000000000044e-01 1.033710000000000045e-01 -8.172999999999999710e-02 -9.180900000000000172e-02 -5.832749999999999879e-01 -5.856369999999999632e-01 -1.454100000000000011e-02 3.255950000000000233e-01 -1.922570000000000112e-01 8.351300000000000390e-02 2.927620000000000222e-01 -7.116200000000000303e-02 -3.032400000000000095e-01 5.689279999999999893e-01 3.588850000000000096e-01 -2.268540000000000001e-01 4.192099999999999993e-02 -1.340469999999999995e-01 -2.394989999999999897e-01 -3.611360000000000126e-01 -1.092560000000000059e-01 -3.480949999999999878e-01 1.711300000000000043e-01 2.888299999999999895e-02 1.300689999999999902e-01 -2.320560000000000123e-01 -7.334800000000000209e-01 7.728969999999999452e-01 2.028189999999999993e-01 5.629480000000000040e-01 -2.658299999999999899e-02 5.672329999999999872e-01 -2.194780000000000064e-01 -4.621959999999999957e-01 -5.584280000000000355e-01 -3.835239999999999760e-01 1.170469999999999983e-01 -5.989119999999999999e-01 -3.607290000000000219e-01 -7.912500000000000089e-02 -1.378350000000000131e-01 3.162909999999999888e-01 1.684899999999999939e-02 -9.976699999999999458e-02 -1.873750000000000138e-01 -4.500390000000000224e-01 2.006040000000000045e+00 1.680679999999999952e+00 5.905439999999999579e-01 5.681559999999999944e-01 2.188980000000000092e-01 7.014979999999999549e-01 -8.378780000000000117e-01 -3.544720000000000093e-01 4.024599999999999705e-02 5.035000000000000413e-03 -6.815899999999999737e-02 3.868460000000000232e-01 1.283990000000000131e-01 -3.108299999999999952e-02 7.384300000000000586e-02 4.561870000000000092e-01 3.359650000000000136e-01 4.550449999999999773e-01 -2.721399999999999861e-02 3.874810000000000199e-01 -1.987450000000000050e-01 -7.639970000000000372e-01 -9.348299999999999665e-02 -2.461879999999999902e-01 -1.571049999999999947e-01 5.680960000000000454e-01 2.082199999999999884e-01 7.301790000000000225e-01 1.912119999999999931e-01 4.806860000000000022e-01 -3.448419999999999819e-01 2.614259999999999917e-01 -1.135310000000000069e-01 -2.326766000000000112e+00 -1.356915000000000093e+00 -1.115858000000000017e+00 2.650469999999999771e-01 1.662089999999999956e-01 4.726580000000000226e-01 -4.918139999999999734e-01 1.830970000000000097e-01 -1.644269999999999898e-01 -2.638119999999999910e-01 1.521520000000000095e-01 1.245170000000000027e-01 2.472179999999999933e-01 -8.512100000000000222e-02 1.791770000000000029e-01 -3.417589999999999795e-01 4.000700000000000089e-02 -1.909430000000000016e-01 -9.146700000000000663e-02 3.163819999999999966e-01 -8.330899999999999417e-02 -5.125499999999999501e-01 -8.437500000000000555e-02 -2.260600000000000109e-01 4.941960000000000242e-01 1.460940000000000016e-01 2.037200000000000122e-02 3.706769999999999787e-01 1.115649999999999975e-01 2.847169999999999979e-01 -1.714849999999999985e-01 3.213880000000000070e-01 -6.586000000000000187e-02 -4.389270000000000116e-01 -1.904600000000000043e-02 -3.791180000000000105e-01 5.098519999999999719e-01 2.865699999999999914e-01 1.530370000000000064e-01 -5.638670000000000071e-01 -1.721090000000000120e-01 -1.290219999999999978e-01 2.901779999999999915e-01 2.720449999999999813e-01 7.988599999999999868e-02 1.280300000000000014e-02 2.564219999999999833e-01 -3.505340000000000122e-01 1.632659999999999945e-01 3.791860000000000230e-01 6.234629999999999894e-01 -4.821259999999999990e-01 -1.728600000000000136e-01 2.089940000000000131e-01 -3.857059999999999933e-01 -3.079330000000000123e-01 -5.338299999999999990e-02 1.989009999999999945e-01 -6.136899999999999578e-01 1.512580000000000036e-01 4.843629999999999880e-01 8.424700000000000244e-02 -6.861699999999999744e-02 2.338820000000000066e-01 2.133720000000000061e-01 -2.440029999999999977e-01 -6.609900000000000497e-02 -1.345699999999999952e-01 -6.748099999999999932e-02 1.552260000000000029e-01 -4.915359999999999729e-01 1.437509999999999899e-01 -1.336019999999999985e-01 -1.221840000000000009e-01 -3.636710000000000220e-01 2.379350000000000076e-01 1.134339999999999932e-01 -1.173150000000000026e-01 4.991749999999999798e-01 -3.283499999999999752e-01 -1.144509999999999972e-01 1.677970000000000017e-01 -2.753999999999999782e-01 -2.783070000000000266e-01
6.161849999999999827e-01 -6.033650000000000402e-01 -7.123789999999999845e-01 -3.909389999999999810e-01 2.339300000000000060e-02 -3.680849999999999955e-01 1.094521000000000077e+00 -1.974690000000000056e-01 4.450399999999999912e-01 1.206560999999999995e+00 -7.576939999999999786e-01 2.035019999999999885e-01 -2.815239999999999965e-01 -1.491025000000000045e+00 -5.569629999999999859e-01 3.928500000000000048e-02 -2.090829999999999911e-01 -5.236009999999999831e-01 3.536349999999999771e-01 9.106239999999999890e-01 -2.213380000000000070e-01 1.010197999999999929e+00 1.065283999999999898e+00 1.812472000000000083e+00 2.005290000000000128e-01 -1.812324999999999964e+00 -4.498150000000000204e-01 3.463200000000000306e-02 -8.590079999999999938e-01 2.219019999999999881e-01 -2.867839999999999834e-01 1.355391000000000012e+00 -4.847420000000000062e-01 4.876309999999999811e-01 -8.016590000000000105e-01 6.816489999999999494e-01 1.271079000000000070e+00 -1.212709999999999955e+00 -9.828249999999999487e-01 -4.258950000000000236e-01 -1.279576999999999964e+00 -5.805019999999999625e-01 2.835309999999999775e-01 6.836349999999999927e-01 7.674600000000000311e-01 -8.591079999999999828e-01 9.354999999999999982e-01 -2.354966000000000115e+00 6.658368000000000286e+00 4.768930000000000113e+00 3.032131999999999827e+00 -3.924619999999999775e-01 1.123026999999999997e+00 5.569520000000000026e-01 -4.072149999999999936e-01 4.201630000000000087e-01 6.073410000000000197e-01 2.211019999999999930e-01 -9.189899999999999736e-01 1.238798000000000066e+00 5.029569999999999874e-01 -1.228120000000000045e-01 5.097100000000000242e-02 -8.395299999999999985e-01 1.026842000000000033e+00 1.493071999999999955e+00 -1.148848000000000091e+00 1.171515000000000084e+00 -1.105976000000000070e+00 -1.179338999999999915e+00 3.174279999999999879e-01 5.394870000000000498e-01 -1.727190999999999921e+00 4.443590000000000040e-01 -9.270929999999999449e-01 8.488560000000000549e-01 -1.910411000000000081e+00 1.319633000000000056e+00 -7.848429999999999573e-01 1.008024999999999949e+00 6.761000000000000343e-01 -4.801334999999999908e+00 -2.927891999999999939e+00 -8.842600000000000460e-01 -3.437410000000000188e-01 -1.159615000000000062e+00 3.303349999999999898e-01 -2.571880000000000277e-01 9.082800000000000595e-02 1.466604000000000019e+00 3.161740000000000106e-01 -1.869599999999999873e-01 -3.644290000000000029e-01 4.182170000000000054e-01 -5.831200000000000272e-02 1.020800000000000041e-01 -1.866200000000000150e-02 3.451879999999999948e-01 -1.555819999999999981e-01 5.504970000000000141e-01 -4.567749999999999866e-01 -5.682779999999999498e-01 -7.169480000000000297e-01 4.935459999999999847e-01 2.676040000000000085e-01 3.974369999999999847e-01 -1.294839999999999991e+00 -1.403232000000000035e+00 -6.130919999999999703e-01 -7.905900000000000427e-02 -3.740350000000000064e-01 -1.530975999999999893e+00 -9.863750000000000018e-01 -2.831029999999999935e-01 -7.176430000000000309e-01 2.082799999999999929e-02 3.859920000000000018e-01 -2.775750000000000162e-01 3.403799999999999881e-02 -4.846739999999999937e-01 -1.029479999999999978e-01 4.367400000000000171e-01 7.637629999999999697e-01 -8.728420000000000067e-01 1.124503000000000030e+00 -5.440709999999999713e-01 -4.890499999999999708e-02 1.703250000000000042e-01 1.715659999999999963e-01 -2.442020000000000024e-01 -3.137220000000000009e-01 1.131588000000000038e+00 -1.128873000000000015e+00 3.977120000000000100e-01 3.126889999999999947e-01 1.770889999999999964e-01 8.984259999999999469e-01 5.373750000000000471e-01 2.453239999999999865e-01 6.579679999999999973e-01 -1.863400000000000056e-01 1.408576000000000050e+00 -1.693427999999999933e+00 1.301673999999999998e+00 5.668220000000000480e-01 -1.952965999999999980e+00 -9.944939999999999891e-01 4.962820000000000009e-01 3.716760000000000064e-01 -9.920740000000000114e-01 1.443378999999999968e+00 1.390430000000000055e+00 -3.729029999999999845e-01 -1.976529999999999954e-01 -3.164520000000000111e-01 -1.672697000000000100e+00 -8.746829999999999883e-01 4.339779999999999749e-01 -1.438175999999999899e+00 4.853000000000000091e-01 5.798569999999999558e-01 1.395399999999999939e-02 1.367760000000000087e-01 9.023640000000000549e-01 -4.451019999999999976e-01
-9.072369999999999601e-01 -1.132357999999999976e+00 3.049109999999999876e-01 2.251085999999999920e+00 3.603689999999999949e-01 -2.816750000000000087e-01 -1.170811000000000046e+00 4.005110000000000059e-01 2.920920000000000183e-01 1.830756000000000050e+00 -1.053088999999999942e+00 8.148140000000000382e-01 -4.166900000000000048e-01 7.486720000000000041e-01 8.727129999999999610e-01 -9.378130000000000077e-01 9.509269999999999667e-01 8.531549999999999967e-01 1.871460000000000068e-01 5.849889999999999812e-01 4.764780000000000126e-01 -5.808419999999999694e-01 -1.603695000000000093e+00 1.121277999999999997e+00 1.940139999999999920e-01 9.314879999999999827e-01 -1.354565000000000019e+00 2.207560000000000078e-01 -2.365889999999999938e-01 2.860358999999999874e+00 -1.436610000000000109e-01 4.964810000000000056e-01 2.233759999999999912e-01 -3.946209999999999996e-01 8.027399999999999813e-02 -1.003775000000000084e+00 -2.973459999999999992e-01 -2.003115999999999897e+00 5.085370000000000168e-01 -1.661723000000000061e+00 1.309514999999999985e+00 -1.392657000000000034e+00 -1.208250000000000018e-01 -4.827589999999999937e-01 1.804270000000000040e-01 -8.547899999999999943e-02 -6.298660000000000370e-01 4.374600000000000016e-02 5.714678000000000146e+00 5.052317000000000391e+00 1.029689999999999994e+00 1.353172000000000041e+00 -1.681513000000000035e+00 6.772399999999999531e-01 -2.795024000000000175e+00 -3.304111999999999938e+00 -1.040616999999999903e+00 1.107472000000000012e+00 1.372649999999999981e-01 2.318790000000000018e-01 -1.129601000000000077e+00 1.688857999999999970e+00 -2.429457999999999895e+00 -1.159383000000000052e+00 -3.147559999999999802e-01 -1.614352000000000009e+00 -5.711429999999999563e-01 1.268340000000000023e+00 2.168309999999999960e-01 7.207900000000000418e-02 3.473459999999999881e-01 8.537080000000000224e-01 -1.346964000000000050e+00 -1.933100000000000096e-02 1.852381999999999973e+00 -7.202420000000000488e-01 3.718500000000000277e-02 -5.012259999999999494e-01 -9.559419999999999584e-01 -1.686570000000000014e-01 -4.195610000000000173e-01 -4.315229000000000426e+00 -5.574053000000000146e+00 -2.105272999999999950e+00 -4.419200000000000211e-02 -1.966852999999999962e+00 -1.518480999999999970e+00 2.076598999999999862e+00 4.226949999999999874e-01 -2.803289999999999949e-01 -1.241469999999999935e-01 -2.934880000000000266e-01 -1.650540000000000063e-01 8.841860000000000275e-01 -1.535420000000000118e-01 -5.619579999999999576e-01 -7.674860000000000015e-01 -1.937940999999999914e+00 1.120538999999999952e+00 -1.847086000000000006e+00 1.581787999999999972e+00 -5.337520000000000042e-01 -6.229179999999999717e-01 9.697890000000000121e-01 -2.314252000000000198e+00 8.014879999999999782e-01 -8.731630000000000225e-01 -2.992850000000000232e-01 -7.165000000000000362e-03 2.321512999999999938e+00 6.349500000000000144e-01 -3.890170000000000017e-01 7.778709999999999791e-01 3.394120000000000026e+00 -1.014889999999999959e-01 -7.961139999999999883e-01 1.885413000000000006e+00 1.047939999999999983e-01 -4.078140000000000098e-01 -1.115583999999999909e+00 8.488850000000000007e-01 2.071079999999999810e+00 -2.409380000000000133e-01 9.572850000000000525e-01 6.786659999999999915e-01 -7.973550000000000360e-01 7.566319999999999713e-01 9.466379999999999795e-01 -3.450550000000000006e-01 4.208020000000000094e-01 1.033919999999999978e-01 6.667530000000000401e-01 -6.359110000000000040e-01 5.190299999999999914e-01 2.139880000000000115e-01 7.222300000000000386e-01 -1.114720000000000016e-01 -1.294615999999999989e+00 -1.149556999999999940e+00 -8.754420000000000535e-01 -1.038348999999999966e+00 4.646529999999999827e-01 -1.304041000000000006e+00 4.608380000000000254e-01 2.696889999999999787e+00 6.639800000000000146e-01 -1.008745999999999921e+00 5.131599999999999495e-01 4.387480000000000269e-01 5.988999999999999879e-01 2.327030000000000154e+00 -1.578039999999999998e-01 5.963889999999999469e-01 -5.356170000000000098e-01 6.317009999999999570e-01 -1.514050000000000118e-01 9.453310000000000324e-01 1.455972000000000044e+00 -4.563740000000000019e-01 -1.909391999999999978e+00 1.563299999999999967e-01 6.716860000000000053e-01 3.934289999999999732e-01 -1.052162999999999959e+00 6.075019999999999865e-01
-2.632519999999999860e-01 2.262329999999999897e-01 6.113299999999999984e-02 -2.078069999999999917e-01 2.741230000000000055e-01 -1.192170000000000035e-01 -3.481630000000000003e-01 -3.229839999999999933e-01 -5.103999999999999648e-01 3.995250000000000190e-01 -1.728909999999999891e-01 4.838669999999999916e-01 -2.291809999999999958e-01 -1.464989999999999903e-01 2.069689999999999863e-01 -1.968860000000000054e-01 1.015329999999999983e-01 -6.766010000000000080e-01 -4.091879999999999962e-01 3.406299999999999883e-01 2.474600000000000063e-02 -8.257100000000000550e-02 -2.026320000000000066e-01 -2.561339999999999728e-01 3.620099999999999707e-02 4.214899999999999758e-01 4.099960000000000271e-01 -2.615379999999999927e-01 -2.426700000000000038e-02 2.434630000000000127e-01 4.652640000000000109e-01 4.969709999999999961e-01 4.268520000000000092e-01 -5.740699999999999970e-02 2.531530000000000169e-01 2.204899999999999916e-01 5.291869999999999630e-01 -4.565589999999999926e-01 -3.490059999999999829e-01 -2.128889999999999949e-01 -5.141799999999999843e-02 -2.780329999999999746e-01 9.052899999999999836e-02 2.257109999999999950e-01 -2.469590000000000118e-01 -2.191529999999999867e-01 -3.334489999999999954e-01 6.092100000000000293e-02 2.980262000000000189e+00 1.408541999999999961e+00 1.333584000000000103e+00 2.148829999999999907e-01 -1.609750000000000070e-01 -3.855939999999999923e-01 1.301920000000000022e-01 3.315969999999999751e-01 -6.846449999999999481e-01 3.060610000000000275e-01 6.388800000000000034e-02 -6.965050000000000407e-01 1.753339999999999899e-01 1.288680000000000103e-01 2.740699999999999803e-01 -1.902330000000000132e-01 -2.994899999999999993e-02 1.509469999999999978e-01 2.932799999999999851e-01 -1.763369999999999937e-01 -4.134689999999999754e-01 4.802179999999999782e-01 -3.260489999999999777e-01 8.114479999999999471e-01 2.657039999999999957e-01 -3.849000000000000199e-01 -1.897570000000000090e-01 2.857160000000000255e-01 2.447139999999999871e-01 2.314740000000000131e-01 -2.769610000000000127e-01 -2.292579999999999896e-01 2.529379999999999962e-01 -3.732536000000000076e+00 -2.183339000000000141e+00 -1.266402000000000028e+00 3.481859999999999955e-01 2.085589999999999944e-01 -1.152320000000000011e-01 -2.485690000000000122e-01 -3.418669999999999765e-01 1.801599999999999868e-01 3.380799999999999778e-02 -1.113279999999999964e-01 1.211330000000000046e-01 1.291480000000000128e-01 3.131199999999999956e-02 9.833400000000000474e-02 -1.185260000000000064e-01 6.737700000000000633e-02 -8.010040000000000493e-01 2.904909999999999992e-01 -6.240699999999999720e-02 5.377089999999999925e-01 2.718599999999999905e-01 -6.354919999999999458e-01 3.902180000000000093e-01 3.623000000000000109e-01 9.254099999999999826e-02 -2.451409999999999978e-01 1.043530000000000013e-01 4.880700000000000316e-02 1.127719999999999972e-01 -2.540129999999999888e-01 -1.426560000000000050e-01 5.089899999999999980e-02 -5.604599999999999860e-02 -7.298999999999999932e-02 9.605099999999999749e-02 -6.661000000000000254e-03 3.379730000000000234e-01 9.253699999999999426e-02 -7.299080000000000013e-01 4.558220000000000049e-01 3.695959999999999801e-01 -4.314140000000000197e-01 5.249080000000000412e-01 -7.270429999999999948e-01 2.677300000000000235e-01 2.886499999999999830e-02 4.259539999999999993e-01 -2.838999999999999944e-03 4.181790000000000229e-01 7.347409999999999775e-01 5.440000000000000391e-03 4.975999999999999868e-02 -2.313429999999999931e-01 -4.012140000000000151e-01 -9.322400000000000131e-02 -2.942060000000000231e-01 -3.245299999999999851e-01 6.462099999999999789e-02 -5.813000000000000111e-02 7.297199999999999520e-02 1.460319999999999951e-01 -7.595000000000000362e-02 1.799419999999999908e-01 7.567000000000000115e-02 1.390129999999999977e-01 3.807760000000000034e-01 9.912300000000000277e-02 2.953850000000000087e-01 2.023300000000000098e-02 5.097700000000000148e-02 -2.136300000000000004e-02 -4.930899999999999866e-02 -2.528610000000000024e-01 -2.391530000000000045e-01 -2.287679999999999991e-01 -1.432599999999999985e-01 2.205249999999999988e-01 -2.091469999999999996e-01 -1.737920000000000020e-01 -1.193970000000000031e-01 6.291130000000000333e-01 1.340200000000000072e-02 -5.723899999999999821e-02