8.684881006999999542e+00 0.000000000000000000e+00 0.000000000000000000e+00 4.383845014000000262e+00 7.555059975999999899e+00 0.000000000000000000e+00 4.312349744999999679e+00 2.421449595999999982e+00 7.010194478999999923e+00
8.612016192000000459e+00 0.000000000000000000e+00 0.000000000000000000e+00 4.302383571000000018e+00 7.517698243999999974e+00 0.000000000000000000e+00 4.304836068000000182e+00 2.456098185000000100e+00 7.035148236999999583e+00
8.564547908999999848e+00 0.000000000000000000e+00 0.000000000000000000e+00 4.263955990999999557e+00 7.433274328999999625e+00 0.000000000000000000e+00 4.204009676000000084e+00 2.528229715000000155e+00 7.059304852000000352e+00
8.434341174000000052e+00 0.000000000000000000e+00 0.000000000000000000e+00 4.211954199000000010e+00 7.301686508000000408e+00 0.000000000000000000e+00 4.387919418000000071e+00 2.482916159000000178e+00 7.147049447999999749e+00
8.552688530999999372e+00 0.000000000000000000e+00 0.000000000000000000e+00 4.263649571000000194e+00 7.531031965999999578e+00 0.000000000000000000e+00 4.253379827999999918e+00 2.436566551999999941e+00 7.042401253999999611e+00
8.817835811000000135e+00 0.000000000000000000e+00 0.000000000000000000e+00 4.259554926999999935e+00 7.569513846999999629e+00 0.000000000000000000e+00 4.544356364000000426e+00 2.313543898999999904e+00 7.251537954999999869e+00
8.614852758999999693e+00 0.000000000000000000e+00 0.000000000000000000e+00 4.395789169000000385e+00 7.564306697000000135e+00 0.000000000000000000e+00 4.258079612000000402e+00 2.468160038000000167e+00 6.997705466000000207e+00
8.576871051999999551e+00 0.000000000000000000e+00 0.000000000000000000e+00 4.255490595999999570e+00 7.434160628999999965e+00 0.000000000000000000e+00 4.229105911999999634e+00 2.543187323999999805e+00 7.040399308999999661e+00
8.696321165000000519e+00 0.000000000000000000e+00 0.000000000000000000e+00 4.311231387000000304e+00 7.548063597999999708e+00 0.000000000000000000e+00 4.377205878999999911e+00 2.362616587000000212e+00 7.189328030999999619e+00
8.928172124999999681e+00 0.000000000000000000e+00 0.000000000000000000e+00 4.405826720000000307e+00 7.739041087000000374e+00 0.000000000000000000e+00 4.551389632000000240e+00 2.517282264999999963e+00 7.069868261999999959e+00
8.488548142000000851e+00 0.000000000000000000e+00 0.000000000000000000e+00 4.237063381999999656e+00 7.366444870999999672e+00 0.000000000000000000e+00 4.406140932999999649e+00 2.501446814999999990e+00 7.146967118000000063e+00
8.642784852000000129e+00 0.000000000000000000e+00 0.000000000000000000e+00 4.359504470000000076e+00 7.542266931000000341e+00 0.000000000000000000e+00 4.279028775999999645e+00 2.441220320000000221e+00 6.980368792000000155e+00
8.551680122000000495e+00 0.000000000000000000e+00 0.000000000000000000e+00 4.143798752000000363e+00 7.550779773000000361e+00 0.000000000000000000e+00 4.319833660999999658e+00 2.458051182999999806e+00 6.906259534000000144e+00
8.712252838999999582e+00 0.000000000000000000e+00 0.000000000000000000e+00 4.293060391000000031e+00 7.717675541000000194e+00 0.000000000000000000e+00 4.366258488999999798e+00 2.544158261000000198e+00 6.930609016000000011e+00
8.640439463999999958e+00 0.000000000000000000e+00 0.000000000000000000e+00 4.386712698000000188e+00 7.488938604000000332e+00 0.000000000000000000e+00 4.332116143000000363e+00 2.550215714000000133e+00 7.236871232000000376e+00
8.567157618999999613e+00 0.000000000000000000e+00 0.000000000000000000e+00 4.250391586000000110e+00 7.559410755000000037e+00 0.000000000000000000e+00 4.293292692999999716e+00 2.453341251999999972e+00 7.015164371000000010e+00
8.573325457999999344e+00 0.000000000000000000e+00 0.000000000000000000e+00 4.391299044000000151e+00 7.602015320999999659e+00 0.000000000000000000e+00 4.256693181000000159e+00 2.475840256000000128e+00 7.005543699000000402e+00
8.533077830999999946e+00 0.000000000000000000e+00 0.000000000000000000e+00 4.141254878999999889e+00 7.531545129999999588e+00 0.000000000000000000e+00 4.276947389000000044e+00 2.448454332999999927e+00 7.009436439999999990e+00
8.702849376999999720e+00 0.000000000000000000e+00 0.000000000000000000e+00 4.282101884000000247e+00 7.709781921000000260e+00 0.000000000000000000e+00 4.361330670000000076e+00 2.544191189000000186e+00 6.926466744999999925e+00
8.776114212999999609e+00 0.000000000000000000e+00 0.000000000000000000e+00 4.360987251000000064e+00 7.525118306999999618e+00 0.000000000000000000e+00 4.527633383000000400e+00 2.338867813999999878e+00 7.125453103999999982e+00
8.624981416000000678e+00 0.000000000000000000e+00 0.000000000000000000e+00 4.300739706999999967e+00 7.587729152999999727e+00 0.000000000000000000e+00 4.314150996999999599e+00 2.442768120000000209e+00 7.019672747999999629e+00
8.629821301999999861e+00 0.000000000000000000e+00 0.000000000000000000e+00 4.299385773000000022e+00 7.507528623999999873e+00 0.000000000000000000e+00 4.453934148000000093e+00 2.521547525999999984e+00 7.142657426000000420e+00
8.604862562999999298e+00 0.000000000000000000e+00 0.000000000000000000e+00 4.260206404999999918e+00 7.538452932000000217e+00 0.000000000000000000e+00 4.272444022000000174e+00 2.492397592000000106e+00 7.187928679999999737e+00
8.621694221000000269e+00 0.000000000000000000e+00 0.000000000000000000e+00 4.317482949999999597e+00 7.587713598999999753e+00 0.000000000000000000e+00 4.302614530999999687e+00 2.560813396999999991e+00 7.187292226000000284e+00
8.595182129999999532e+00 0.000000000000000000e+00 0.000000000000000000e+00 4.272727362999999556e+00 7.560623839999999873e+00 0.000000000000000000e+00 4.419289674999999917e+00 2.429315325000000136e+00 7.045511707000000179e+00
8.592156458999999913e+00 0.000000000000000000e+00 0.000000000000000000e+00 4.246339247999999955e+00 7.543531362999999601e+00 0.000000000000000000e+00 4.265062445999999952e+00 2.482758212999999881e+00 7.175099602999999604e+00
8.781022088000000281e+00 0.000000000000000000e+00 0.000000000000000000e+00 4.409826285000000290e+00 7.616199393999999678e+00 0.000000000000000000e+00 4.359668961999999759e+00 2.678146459999999784e+00 7.038747928000000265e+00
8.781735103000000819e+00 0.000000000000000000e+00 0.000000000000000000e+00 4.396281025000000398e+00 7.520406201000000124e+00 0.000000000000000000e+00 4.427415199000000356e+00 2.408214137999999949e+00 7.066682474000000269e+00
8.672914138999999523e+00 0.000000000000000000e+00 0.000000000000000000e+00 4.205804023999999863e+00 7.721775574999999670e+00 0.000000000000000000e+00 4.391292653999999906e+00 2.521585221000000043e+00 6.924382195999999823e+00
8.594024808000000348e+00 0.000000000000000000e+00 0.000000000000000000e+00 4.288696032999999908e+00 7.550466640999999868e+00 0.000000000000000000e+00 4.237990431000000058e+00 2.577328554000000160e+00 7.129423102999999706e+00
8.598972698000000747e+00 0.000000000000000000e+00 0.000000000000000000e+00 4.271345740000000113e+00 7.548442749000000340e+00 0.000000000000000000e+00 4.284999232999999741e+00 2.445486766000000145e+00 7.034501037000000068e+00
8.606596927000000008e+00 0.000000000000000000e+00 0.000000000000000000e+00 4.313713744000000183e+00 7.555168313000000246e+00 0.000000000000000000e+00 4.288667518999999650e+00 2.432899121000000164e+00 7.027695688999999746e+00
8.589354076999999421e+00 0.000000000000000000e+00 0.000000000000000000e+00 4.265783546999999842e+00 7.552113720999999558e+00 0.000000000000000000e+00 4.272102532999999980e+00 2.458019885000000126e+00 7.050690516999999602e+00
8.721835938999999982e+00 0.000000000000000000e+00 0.000000000000000000e+00 4.366245067999999563e+00 7.549888751000000120e+00 0.000000000000000000e+00 4.390060164000000320e+00 2.392083207000000211e+00 7.209081895999999823e+00
8.717047498999999533e+00 0.000000000000000000e+00 0.000000000000000000e+00 4.357599733999999891e+00 7.613919876999999836e+00 0.000000000000000000e+00 4.428975656999999622e+00 2.444943735999999923e+00 7.050004966999999567e+00
8.535656551000000647e+00 0.000000000000000000e+00 0.000000000000000000e+00 4.257591815999999696e+00 7.415432025000000316e+00 0.000000000000000000e+00 4.419672184000000392e+00 2.506454401000000054e+00 7.145909816999999720e+00
8.733617726000000303e+00 0.000000000000000000e+00 0.000000000000000000e+00 4.319278977999999825e+00 7.501240598999999953e+00 0.000000000000000000e+00 4.370402889000000179e+00 2.574629895999999807e+00 7.238056312000000325e+00
8.550335463999999774e+00 0.000000000000000000e+00 0.000000000000000000e+00 4.240447232000000177e+00 7.553309257999999637e+00 0.000000000000000000e+00 4.221088465000000234e+00 2.526006970000000074e+00 6.922653003999999832e+00
8.853979659000000169e+00 0.000000000000000000e+00 0.000000000000000000e+00 4.440308841000000228e+00 7.663609702999999662e+00 0.000000000000000000e+00 4.396155566000000015e+00 2.689890387999999799e+00 7.012999197000000073e+00
8.842672727000000066e+00 0.000000000000000000e+00 0.000000000000000000e+00 4.383516907999999823e+00 7.672823434999999748e+00 0.000000000000000000e+00 4.534684530999999907e+00 2.543717126999999856e+00 7.136576711000000017e+00
8.591842584000000116e+00 0.000000000000000000e+00 0.000000000000000000e+00 4.303217188999999721e+00 7.491457639000000057e+00 0.000000000000000000e+00 4.257906777999999726e+00 2.480927767999999922e+00 7.029046628999999768e+00
8.696956991000000414e+00 0.000000000000000000e+00 0.000000000000000000e+00 4.366333968000000176e+00 7.519417645999999955e+00 0.000000000000000000e+00 4.339256199000000258e+00 2.603353148000000061e+00 7.055477046000000030e+00
8.550129340999999883e+00 0.000000000000000000e+00 0.000000000000000000e+00 4.297519921000000132e+00 7.509833620000000209e+00 0.000000000000000000e+00 4.244768491000000310e+00 2.423018842999999922e+00 6.993279790999999967e+00
8.724057939999999789e+00 0.000000000000000000e+00 0.000000000000000000e+00 4.388921876000000388e+00 7.636440173000000442e+00 0.000000000000000000e+00 4.353663261000000340e+00 2.456881870000000134e+00 7.154725463000000119e+00
8.861256544999999818e+00 0.000000000000000000e+00 0.000000000000000000e+00 4.438065368000000177e+00 7.724059952000000173e+00 0.000000000000000000e+00 4.380306931999999875e+00 2.700031608000000194e+00 7.021918473000000382e+00
8.434341174000000052e+00 0.000000000000000000e+00 0.000000000000000000e+00 4.211954199000000010e+00 7.301686508000000408e+00 0.000000000000000000e+00 4.387919418000000071e+00 2.482916159000000178e+00 7.147049447999999749e+00
8.691521099999999223e+00 0.000000000000000000e+00 0.000000000000000000e+00 4.370138442000000012e+00 7.524785459000000287e+00 0.000000000000000000e+00 4.418120367000000215e+00 2.411969521000000061e+00 7.003429009000000427e+00
8.567518550000000843e+00 0.000000000000000000e+00 0.000000000000000000e+00 4.308729405000000234e+00 7.551210906999999750e+00 0.000000000000000000e+00 4.275140648999999904e+00 2.441538926999999859e+00 7.011203075000000062e+00
8.642524215999999981e+00 0.000000000000000000e+00 0.000000000000000000e+00 4.359956612000000398e+00 7.612121296999999842e+00 0.000000000000000000e+00 4.317969076999999878e+00 2.417677827999999973e+00 7.213103696000000120e+00
8.650460582999999204e+00 0.000000000000000000e+00 0.000000000000000000e+00 4.315975081000000380e+00 7.588623123999999720e+00 0.000000000000000000e+00 4.342446166000000218e+00 2.408632168000000018e+00 7.127902051999999600e+00
