8.400740320000000594e+00 0.000000000000000000e+00 0.000000000000000000e+00 4.170950688999999656e+00 7.261706399000000367e+00 0.000000000000000000e+00 4.212830567000000137e+00 2.407516515999999829e+00 6.845764961000000426e+00
8.357073238999999987e+00 0.000000000000000000e+00 0.000000000000000000e+00 4.055198496000000041e+00 7.328478077999999840e+00 0.000000000000000000e+00 4.076272009000000196e+00 2.518302117000000173e+00 6.883495177000000353e+00
8.538507143000000355e+00 0.000000000000000000e+00 0.000000000000000000e+00 4.461426855000000025e+00 7.216862610999999816e+00 0.000000000000000000e+00 4.364427921999999960e+00 2.322771817000000016e+00 6.806741600999999697e+00
8.491398934999999426e+00 0.000000000000000000e+00 0.000000000000000000e+00 4.197626103000000164e+00 7.368460158000000426e+00 0.000000000000000000e+00 4.218472889000000059e+00 2.475863203999999929e+00 6.939013491999999950e+00
8.483940109000000618e+00 0.000000000000000000e+00 0.000000000000000000e+00 4.160409547000000430e+00 7.346025563999999619e+00 0.000000000000000000e+00 4.079927738000000303e+00 2.510303646000000111e+00 6.911453153000000071e+00
8.510664158999999174e+00 0.000000000000000000e+00 0.000000000000000000e+00 4.197705349999999669e+00 7.326108757000000082e+00 0.000000000000000000e+00 4.226523196999999676e+00 2.422115874000000169e+00 6.938920548999999660e+00
8.582398998000000390e+00 0.000000000000000000e+00 0.000000000000000000e+00 4.304995947000000101e+00 7.425060315999999716e+00 0.000000000000000000e+00 4.260463306000000117e+00 2.415807774000000130e+00 7.012267643999999578e+00
8.465516821999999664e+00 0.000000000000000000e+00 0.000000000000000000e+00 4.336030134999999675e+00 7.386291806000000015e+00 0.000000000000000000e+00 4.354334652000000361e+00 2.442195506000000016e+00 6.987340365999999747e+00
8.512937245999999902e+00 0.000000000000000000e+00 0.000000000000000000e+00 4.297360886999999963e+00 7.400133001999999571e+00 0.000000000000000000e+00 4.273589041000000144e+00 2.468453390000000081e+00 6.974735208000000242e+00
8.501508018999999194e+00 0.000000000000000000e+00 0.000000000000000000e+00 4.249215572999999857e+00 7.363949865000000372e+00 0.000000000000000000e+00 4.265131382999999943e+00 2.460710301000000211e+00 6.953876478999999833e+00
8.497349515999999880e+00 0.000000000000000000e+00 0.000000000000000000e+00 4.246240583999999707e+00 7.362167217999999735e+00 0.000000000000000000e+00 4.249489156000000101e+00 2.452601025999999962e+00 6.937111758000000350e+00
8.453661038999999988e+00 0.000000000000000000e+00 0.000000000000000000e+00 4.222205244999999607e+00 7.309238328000000173e+00 0.000000000000000000e+00 4.212174746999999719e+00 2.428720493999999785e+00 6.890643522999999604e+00
8.629497463999999951e+00 0.000000000000000000e+00 0.000000000000000000e+00 4.230268559999999844e+00 7.440756258000000400e+00 0.000000000000000000e+00 4.208844766000000348e+00 2.453089412000000191e+00 7.038364446000000108e+00
8.503708310000000381e+00 0.000000000000000000e+00 0.000000000000000000e+00 4.244182141999999658e+00 7.367723429999999851e+00 0.000000000000000000e+00 4.244242938000000187e+00 2.461647881999999843e+00 6.942479247999999714e+00
8.537698314000000011e+00 0.000000000000000000e+00 0.000000000000000000e+00 4.269053757000000004e+00 7.393929258000000004e+00 0.000000000000000000e+00 4.264082400000000383e+00 2.509369321999999958e+00 6.949279674999999656e+00
8.572138794000000672e+00 0.000000000000000000e+00 0.000000000000000000e+00 4.249664614000000284e+00 7.427746544999999756e+00 0.000000000000000000e+00 4.232960387000000324e+00 2.407710639999999902e+00 7.024284450999999763e+00
8.448763330000000238e+00 0.000000000000000000e+00 0.000000000000000000e+00 4.281676006999999728e+00 7.375989206999999936e+00 0.000000000000000000e+00 4.304912809000000173e+00 2.393340137000000034e+00 6.979858089000000376e+00
8.399124408000000486e+00 0.000000000000000000e+00 0.000000000000000000e+00 4.274080161999999738e+00 7.339145715999999986e+00 0.000000000000000000e+00 4.255841956000000259e+00 2.387748054999999869e+00 6.932233421000000284e+00
8.515535286000000426e+00 0.000000000000000000e+00 0.000000000000000000e+00 4.260079806000000247e+00 7.428339255000000030e+00 0.000000000000000000e+00 4.370504683000000057e+00 2.576450245000000194e+00 6.974366545999999722e+00
8.335425900000000610e+00 0.000000000000000000e+00 0.000000000000000000e+00 4.049290543999999770e+00 7.310002706999999766e+00 0.000000000000000000e+00 4.048363727999999995e+00 2.484164133000000163e+00 6.879411269000000217e+00
8.563011789000000817e+00 0.000000000000000000e+00 0.000000000000000000e+00 4.248575148999999662e+00 7.323662209000000090e+00 0.000000000000000000e+00 4.173975940000000051e+00 2.411198975000000022e+00 6.890045850999999999e+00
8.498226246999999844e+00 0.000000000000000000e+00 0.000000000000000000e+00 4.260922293000000138e+00 7.318050608000000068e+00 0.000000000000000000e+00 4.307944569000000001e+00 2.403145708999999908e+00 6.889810282000000008e+00
8.531616847000000448e+00 0.000000000000000000e+00 0.000000000000000000e+00 4.190598543000000120e+00 7.397679522999999868e+00 0.000000000000000000e+00 4.100839836999999655e+00 2.535906096999999804e+00 6.948589252999999744e+00
8.526250264999999828e+00 0.000000000000000000e+00 0.000000000000000000e+00 4.386424028999999614e+00 7.419994340999999771e+00 0.000000000000000000e+00 4.243380052000000013e+00 2.466023766999999811e+00 6.995992056000000403e+00
8.323539820000000589e+00 0.000000000000000000e+00 0.000000000000000000e+00 4.186741114000000152e+00 7.276038521000000259e+00 0.000000000000000000e+00 4.168970991000000126e+00 2.452636850999999840e+00 6.872709527999999679e+00
8.530841102000000120e+00 0.000000000000000000e+00 0.000000000000000000e+00 4.311990322999999847e+00 7.463004413000000170e+00 0.000000000000000000e+00 4.313759176999999667e+00 2.425849577999999784e+00 7.029104291000000337e+00
8.488190160000000262e+00 0.000000000000000000e+00 0.000000000000000000e+00 4.262489830999999896e+00 7.355504720999999968e+00 0.000000000000000000e+00 4.249247995000000166e+00 2.448873414999999998e+00 6.929620464000000091e+00
8.492419806999999210e+00 0.000000000000000000e+00 0.000000000000000000e+00 4.251281331999999580e+00 7.350030552999999856e+00 0.000000000000000000e+00 4.253563469000000374e+00 2.447794587000000188e+00 6.942849890999999829e+00
8.522532099999999389e+00 0.000000000000000000e+00 0.000000000000000000e+00 4.340292824999999688e+00 7.395875584999999752e+00 0.000000000000000000e+00 4.235976959000000264e+00 2.494355169999999955e+00 6.988651272000000247e+00
8.554811976999999956e+00 0.000000000000000000e+00 0.000000000000000000e+00 4.274070719000000018e+00 7.424894065000000154e+00 0.000000000000000000e+00 4.233152869000000429e+00 2.439512262000000042e+00 6.981578338000000272e+00
8.460467182000000363e+00 0.000000000000000000e+00 0.000000000000000000e+00 4.183122320999999921e+00 7.357669565000000134e+00 0.000000000000000000e+00 4.193629663000000285e+00 2.491631474000000068e+00 6.934410633999999796e+00
8.462052260000000103e+00 0.000000000000000000e+00 0.000000000000000000e+00 4.105647669999999749e+00 7.307517011999999923e+00 0.000000000000000000e+00 4.148877550999999997e+00 2.515203581000000188e+00 6.860914411999999629e+00
8.572604457000000622e+00 0.000000000000000000e+00 0.000000000000000000e+00 4.306578330999999871e+00 7.443548929000000314e+00 0.000000000000000000e+00 4.348071430000000070e+00 2.498395509999999931e+00 7.012649137999999560e+00
8.522216793000000123e+00 0.000000000000000000e+00 0.000000000000000000e+00 4.219187040000000444e+00 7.532345667999999606e+00 0.000000000000000000e+00 4.215326738999999989e+00 2.490443179000000118e+00 7.105387829999999738e+00
8.537436484000000547e+00 0.000000000000000000e+00 0.000000000000000000e+00 4.195373689000000184e+00 7.404030013999999937e+00 0.000000000000000000e+00 4.203185230999999966e+00 2.486530915999999980e+00 6.995819791999999815e+00
8.506999968000000578e+00 0.000000000000000000e+00 0.000000000000000000e+00 4.253535647999999725e+00 7.367438341999999807e+00 0.000000000000000000e+00 4.253491522000000025e+00 2.460666738000000020e+00 6.947893527999999819e+00
8.480180694999999602e+00 0.000000000000000000e+00 0.000000000000000000e+00 4.240633965999999866e+00 7.339006838000000421e+00 0.000000000000000000e+00 4.233676273000000378e+00 2.427630096000000126e+00 6.926894213999999828e+00
8.508626629000000108e+00 0.000000000000000000e+00 0.000000000000000000e+00 4.260186346000000235e+00 7.360137630999999736e+00 0.000000000000000000e+00 4.244837604999999847e+00 2.447557371999999898e+00 6.948635467999999982e+00
8.500528713999999653e+00 0.000000000000000000e+00 0.000000000000000000e+00 4.355387272999999837e+00 7.379997065999999606e+00 0.000000000000000000e+00 4.274851972999999639e+00 2.440658770000000199e+00 6.970253828999999790e+00
8.452465794000000088e+00 0.000000000000000000e+00 0.000000000000000000e+00 4.300521559999999965e+00 7.323335727999999989e+00 0.000000000000000000e+00 4.304169800000000379e+00 2.430198461999999893e+00 6.920819297999999620e+00
8.540768981999999454e+00 0.000000000000000000e+00 0.000000000000000000e+00 4.252397989000000322e+00 7.333426591000000272e+00 0.000000000000000000e+00 4.241405057999999784e+00 2.421959637000000054e+00 6.944171993000000320e+00
8.457440764999999416e+00 0.000000000000000000e+00 0.000000000000000000e+00 4.255908493999999820e+00 7.367431178000000358e+00 0.000000000000000000e+00 4.303293500999999743e+00 2.472921382000000001e+00 6.952614911999999592e+00
8.519344002000000415e+00 0.000000000000000000e+00 0.000000000000000000e+00 4.317709113000000265e+00 7.341004653999999796e+00 0.000000000000000000e+00 4.341178230999999776e+00 2.442349600000000009e+00 6.938181171000000091e+00
8.472734858999999119e+00 0.000000000000000000e+00 0.000000000000000000e+00 4.230291659999999787e+00 7.336372005000000307e+00 0.000000000000000000e+00 4.241095677999999758e+00 2.452544066999999828e+00 6.923210603000000241e+00
8.553817281000000605e+00 0.000000000000000000e+00 0.000000000000000000e+00 4.264918409999999938e+00 7.470839436000000333e+00 0.000000000000000000e+00 4.356967292000000214e+00 2.454605017000000000e+00 7.079837309000000189e+00
8.497982287999999329e+00 0.000000000000000000e+00 0.000000000000000000e+00 4.238512343000000016e+00 7.363059994000000330e+00 0.000000000000000000e+00 4.243662228999999897e+00 2.449492411000000036e+00 6.942204348999999830e+00
8.534639927000000625e+00 0.000000000000000000e+00 0.000000000000000000e+00 4.212422187999999679e+00 7.312959078999999640e+00 0.000000000000000000e+00 4.191586099000000232e+00 2.403352985000000164e+00 6.897233134999999571e+00
8.498724074000000073e+00 0.000000000000000000e+00 0.000000000000000000e+00 4.301519882000000017e+00 7.349178399000000361e+00 0.000000000000000000e+00 4.274565380000000303e+00 2.469424104999999869e+00 6.917016888000000030e+00
8.580884155999999763e+00 0.000000000000000000e+00 0.000000000000000000e+00 4.325580986000000294e+00 7.339972823000000091e+00 0.000000000000000000e+00 4.370882242999999612e+00 2.384836228000000169e+00 6.982108718000000103e+00
8.652061077000000822e+00 0.000000000000000000e+00 0.000000000000000000e+00 4.262992075999999741e+00 7.398948268999999911e+00 0.000000000000000000e+00 4.311251507999999788e+00 2.546630791000000116e+00 6.963313698000000329e+00
