-4.187211288799999807e+02
-4.174042013600000018e+02
-4.170444926600000031e+02
-4.185754885700000045e+02
-4.181212196700000163e+02
-4.184151114000000007e+02
-4.199551809499999990e+02
-4.190209750000000213e+02
-4.159830824200000166e+02
-4.224317436300000281e+02
-4.223858379299999797e+02
-4.221879880199999775e+02
-4.159418872100000044e+02
-4.223977242899999851e+02
-4.186729027100000167e+02
-4.175162204299999757e+02
-4.166050429399999757e+02
-4.222339897300000189e+02
-4.143666061399999876e+02
-4.200144568499999878e+02
-4.145138037500000223e+02
-4.222773755900000197e+02
-4.180697353400000225e+02
-4.139515533399999754e+02
-4.151015027000000259e+02
-4.159795797900000025e+02
-4.223454673800000023e+02
-4.224397523700000079e+02
-4.149734333200000265e+02
-4.195689110800000208e+02
-4.187766767200000118e+02
-4.199541045099999792e+02
-4.182469588800000224e+02
-4.203563774799999919e+02
-4.194178563699999813e+02
-4.224206451200000174e+02
-4.223104379600000016e+02
-4.224674261000000115e+02
-4.156450260299999968e+02
-4.163664883800000212e+02
-4.180755899200000272e+02
-4.180087912500000016e+02
-4.203929931200000283e+02
-4.222403586600000267e+02
-4.128299874300000170e+02
-4.224681215499999780e+02
-4.195005864199999905e+02
-4.224100901699999895e+02
-4.136779296700000259e+02
-4.201184444599999779e+02
