2.496150000000000035e-01 1.250305999999999917e+00 6.055620000000000447e-01 -2.277368000000000059e+00 2.990160000000000040e-01 -4.104300000000000170e-01 1.730871000000000048e+00 2.133970000000000034e-01 -6.390409999999999702e-01 1.137439000000000089e+00 -1.675780000000000047e-01 4.036870000000000180e-01 4.040259999999999962e-01 2.144860000000000100e-01 1.642319999999999891e-01 -9.381410000000000027e-01 -1.516157999999999895e+00 -1.923766000000000087e+00 1.057409000000000043e+00 -3.480000000000000020e-03 5.740429999999999700e-01 1.161720000000000086e+00 -8.843210000000000237e-01 -8.536100000000000632e-02 1.375005999999999950e+00 3.447959999999999914e-01 -2.002249999999999863e-01 1.279454000000000091e+00 2.037239999999999884e-01 1.437192999999999943e+00 -1.310934000000000044e+00 -8.008589999999999876e-01 -9.357539999999999747e-01 -1.109037999999999968e+00 -1.491470999999999991e+00 1.244226999999999972e+00 3.416730000000000045e-01 1.291403999999999996e+00 -7.196740000000000359e-01 -8.918620000000000436e-01 -7.898049999999999793e-01 -1.936731999999999898e+00 -2.264619999999999966e-01 -1.427826999999999957e+00 -3.951160000000000228e-01 6.161320000000000130e-01 -1.479559999999999986e+00 5.826210000000000555e-01 -1.804038000000000030e+00 1.452490999999999977e+00 1.285605000000000109e+00 -6.993310000000000359e-01 -9.646350000000000202e-01 -2.911210000000000186e-01 1.803599999999999995e-02 2.800440000000000151e-01 -3.075709999999999833e-01 1.528596999999999984e+00 -1.246300000000000047e-01 4.936700000000000116e-02 -6.692110000000000003e-01 2.356169999999999931e-01 6.913730000000000153e-01 -8.391729999999999468e-01 -5.217499999999999916e-02 5.975979999999999626e-01 -6.297559999999999825e-01 4.268569999999999864e-01 -8.291800000000000559e-02 6.266169999999999796e-01 9.221979999999999622e-01 2.150940000000000074e-01 -1.200874999999999915e+00 1.350694000000000061e+00 -6.024880000000000235e-01 -4.985260000000000247e-01 1.994519999999999904e-01 -1.445369999999999988e-01 4.544019999999999726e-01 -1.172089999999999937e-01 -8.998810000000000420e-01 -1.106689999999999952e+00 3.635929999999999995e-01 -1.141872999999999916e+00 -1.018804999999999961e+00 6.698769999999999447e-01 7.942919999999999980e-01 -4.811210000000000209e-01 3.960870000000000224e-01 3.205779999999999741e-01 -6.243389999999999773e-01 9.843790000000000040e-01 1.277765999999999957e+00 -8.783020000000000271e-01 4.903910000000000213e-01 3.302510000000000168e-01 -1.089863000000000026e+00 7.722269999999999968e-01 -1.196912999999999894e+00 1.594049999999999911e-01 -5.247979999999999867e-01 1.100321000000000105e+00 8.846929999999999517e-01 1.045195000000000096e+00 -9.779689999999999772e-01 2.908999999999999919e-01 9.273169999999999469e-01 9.326280000000000125e-01 2.840250000000000274e-01 -1.336994999999999933e+00 1.496745999999999910e+00 7.708399999999999697e-01 -3.520369999999999888e-01 -7.054700000000000415e-01 1.771510000000000029e-01 -9.513049999999999562e-01 6.142589999999999995e-01 6.285340000000000371e-01 -1.014923999999999937e+00 -1.371259999999999923e+00 4.862079999999999735e-01 5.132529999999999593e-01 1.666670000000000096e-01 1.598568999999999907e+00 6.141189999999999705e-01 1.513039999999999941e-01 1.398787000000000003e+00 -2.917109999999999981e-01 -7.011549999999999727e-01 -4.885470000000000090e-01 -8.023460000000000036e-01 -4.274350000000000094e-01 3.742469999999999963e-01 -5.214400000000000146e-01 8.070410000000000084e-01 -3.500670000000000170e-01 1.990799999999999861e-02 8.926619999999999555e-01 -9.379999999999999449e-03 -1.622381999999999991e+00 -4.103700000000000125e-01 1.804367999999999972e+00 1.961661000000000099e+00 -1.132088999999999901e+00 1.042710000000000026e-01 5.477100000000000302e-01 1.173442000000000096e+00 2.012750000000000095e-01 -4.432389999999999941e-01 -1.454239000000000059e+00 -7.300619999999999887e-01 7.784699999999999953e-02 8.649120000000000141e-01 -2.149300000000000099e-01 -7.047050000000000258e-01 -1.258202999999999960e+00 -1.057450999999999919e+00 3.175399999999999889e-01 1.578122000000000025e+00
-7.636899999999999800e-01 5.329960000000000253e-01 2.396460999999999952e+00 1.074815999999999994e+00 -2.397579999999999989e-01 -7.238189999999999902e-01 -9.014020000000000366e-01 1.055924000000000085e+00 -5.591019999999999879e-01 1.276349999999999985e-01 6.913169999999999593e-01 -5.901779999999999804e-01 -9.430969999999999631e-01 -6.405880000000000463e-01 -5.664230000000000098e-01 1.996502999999999917e+00 6.063239999999999741e-01 2.640715000000000146e+00 -4.957539999999999725e-01 1.430520000000000125e-01 -1.784798000000000107e+00 5.334699999999999859e-02 -7.631419999999999870e-01 -8.345949999999999758e-01 -6.090790000000000370e-01 4.803080000000000127e-01 1.113696999999999937e+00 -5.306070000000000508e-01 -1.089668000000000081e+00 -1.155964999999999909e+00 9.018460000000000365e-01 5.926839999999999886e-01 -7.283709999999999907e-01 -1.166520000000000057e-01 -2.406959999999999933e-01 -1.371561999999999948e+00 6.030060000000000420e-01 -1.841069999999999929e-01 7.111990000000000256e-01 -2.399699999999999889e-01 1.301319999999999977e-01 -1.272470999999999908e+00 3.187159999999999993e-01 -1.854654000000000025e+00 3.616686000000000067e+00 4.941139999999999977e-01 5.449230000000000462e-01 -6.020339999999999581e-01 -1.052405000000000035e+00 6.776940000000000186e-01 -4.734990000000000032e-01 -9.204830000000000512e-01 5.807649999999999757e-01 -1.176077000000000039e+00 1.491449999999999998e-01 1.224472000000000005e+00 -8.806300000000000239e-01 8.433580000000000521e-01 -9.455160000000000231e-01 -2.084090000000000109e-01 1.077207000000000026e+00 -8.389969999999999928e-01 3.638390000000000235e-01 -1.331512000000000029e+00 8.493870000000000031e-01 1.852816999999999936e+00 3.803480000000000194e-01 -2.663494000000000028e+00 1.311363999999999974e+00 -5.131099999999999550e-01 -5.189900000000000069e-02 1.204631000000000007e+00 2.477610000000000090e-01 1.350854999999999917e+00 3.965429999999999788e-01 2.426290000000000113e-01 -7.703699999999999992e-01 -1.226083999999999952e+00 8.224999999999999672e-03 -8.422910000000000119e-01 8.157159999999999966e-01 6.540070000000000050e-01 -7.878920000000000368e-01 9.996960000000000290e-01 7.987490000000000423e-01 1.114808999999999939e+00 -1.313166999999999973e+00 1.440237999999999907e+00 -9.563059999999999894e-01 -6.039120000000000044e-01 3.624729999999999897e-01 5.566619999999999902e-01 1.092565000000000008e+00 -1.071882999999999919e+00 -8.140269999999999451e-01 -2.801489999999999814e-01 1.530153000000000096e+00 -4.462999999999999745e-01 7.933320000000000372e-01 -2.298389999999999878e-01 3.877599999999999797e-02 1.610832999999999959e+00 -6.777729999999999588e-01 -1.396099999999999945e-02 -3.117240999999999929e+00 -2.300803000000000154e+00 1.892530999999999963e+00 3.517419999999999991e-01 -1.072122000000000019e+00 3.615059999999999940e-01 -4.172399999999999720e-02 4.007299999999999751e-02 1.713314999999999921e+00 -3.816350000000000020e-01 1.493800000000000017e+00 -9.588189999999999769e-01 3.559099999999999764e-02 4.643070000000000253e-01 2.414489999999999970e-01 1.060658000000000101e+00 -3.588339999999999863e-01 -2.456000000000000127e-01 -2.208622000000000085e+00 1.180711000000000066e+00 -6.778739999999999766e-01 -1.440889999999999949e-01 -1.098017999999999939e+00 -3.234679999999999778e-01 2.471019000000000077e+00 -9.088920000000000332e-01 1.359471000000000096e+00 -1.878640000000000088e+00 9.125229999999999730e-01 1.021864000000000106e+00 -1.749228000000000005e+00 4.286600000000000132e-02 -1.273646999999999974e+00 -5.349059999999999926e-01 1.207420000000000021e-01 7.968950000000000200e-01 -1.209527000000000019e+00 8.839350000000000263e-01 -1.207775000000000043e+00 -1.234181999999999890e+00 2.230419999999999903e-01 1.236172000000000049e+00 2.134926999999999797e+00 -6.052929999999999700e-01 -2.101042000000000076e+00 1.069673000000000096e+00 -1.904301000000000021e+00 1.330160000000000009e+00 -1.916597000000000106e+00 -1.561520000000000130e-01 -1.685049999999999937e+00 1.792407000000000084e+00 1.353920000000000123e-01 1.492498000000000102e+00 9.315269999999999939e-01
1.962109999999999965e-01 -9.291800000000000059e-02 2.789200000000000013e-02 -8.955940000000000012e-01 -6.729370000000000074e-01 1.968439999999999912e-01 2.723499999999999810e-01 -4.194860000000000255e-01 7.726960000000000495e-01 2.166190000000000060e-01 4.795530000000000070e-01 -5.776540000000000008e-01 1.145990000000000064e-01 -9.758369999999999544e-01 2.754409999999999914e-01 -5.365849999999999786e-01 7.575439999999999952e-01 6.819370000000000154e-01 4.705610000000000070e-01 -3.198150000000000159e-01 4.880280000000000173e-01 -3.674009999999999776e-01 8.754599999999999882e-02 -7.435700000000000642e-02 -8.619240000000000235e-01 1.176800000000000068e-01 -1.055320999999999954e+00 -4.082199999999999718e-02 -2.495299999999999949e-02 -8.425479999999999636e-01 -1.212377999999999956e+00 1.148527999999999993e+00 5.805409999999999737e-01 1.276092000000000004e+00 -7.398930000000000229e-01 -1.084902000000000033e+00 -2.426939999999999931e-01 -5.805519999999999570e-01 -4.305809999999999915e-01 2.356810000000000016e-01 7.647299999999999931e-02 -5.691749999999999865e-01 1.294089999999999963e+00 -1.094001000000000001e+00 1.078202000000000105e+00 6.313100000000000656e-02 -1.038570000000000049e-01 9.224710000000000409e-01 -7.504910000000000192e-01 -5.006610000000000227e-01 2.433720000000000050e-01 -7.800770000000000204e-01 8.375299999999999412e-02 3.351790000000000047e-01 4.846420000000000172e-01 1.580564999999999998e+00 -1.418349999999999889e-01 -3.791740000000000110e-01 -1.268035999999999941e+00 9.591439999999999966e-01 1.808971000000000107e+00 -3.604000000000000259e-02 -1.221449999999999925e+00 1.059968000000000021e+00 5.988390000000000102e-01 6.044519999999999893e-01 -7.785109999999999530e-01 -6.931119999999999504e-01 -8.245339999999999892e-01 9.816500000000000226e-02 4.134959999999999747e-01 -4.804000000000000110e-03 4.946619999999999906e-01 4.794860000000000233e-01 1.172020999999999979e+00 -1.523147000000000029e+00 1.556190000000000073e-01 -1.248942999999999914e+00 3.994010000000000060e-01 -7.414589999999999792e-01 -4.210760000000000058e-01 1.204077000000000064e+00 1.050680999999999976e+00 1.078486000000000056e+00 1.382101999999999942e+00 -8.601910000000000389e-01 -1.470841000000000065e+00 -6.342579999999999885e-01 8.735349999999999504e-01 -4.295010000000000217e-01 1.607760000000000078e+00 -2.266671999999999798e+00 -1.078934000000000060e+00 6.478199999999999514e-01 1.585862000000000105e+00 1.004126999999999992e+00 -2.816230000000000122e-01 4.086330000000000240e-01 2.013402999999999832e+00 -1.005983999999999989e+00 3.338459999999999761e-01 2.256944999999999979e+00 -6.463959999999999706e-01 -5.987529999999999797e-01 -1.085458000000000034e+00 -1.244953999999999894e+00 2.028373000000000204e+00 -4.495299999999999851e-01 -1.651000000000000037e-02 1.936805000000000110e+00 7.247700000000000253e-01 9.387360000000000149e-01 2.308683999999999958e+00 -3.738360000000000016e-01 -9.388699999999999823e-02 -6.402999999999999838e-03 1.312624999999999931e+00 -1.933583999999999969e+00 -1.343752000000000058e+00 1.793410000000000004e-01 -1.717059999999999975e-01 -4.503880000000000106e-01 6.092180000000000373e-01 7.681679999999999620e-01 -9.952389999999999848e-01 -1.566775999999999947e+00 5.908090000000000286e-01 -5.735569999999999835e-01 1.420201000000000047e+00 1.016706000000000110e+00 -1.422649999999999970e+00 -1.754418999999999951e+00 -1.962959999999999983e-01 -3.315200000000000091e-02 2.675069999999999948e-01 -1.466790999999999956e+00 -1.082468999999999903e+00 1.130279999999999951e+00 -2.233572000000000113e+00 6.468990000000000018e-01 -1.760119999999999907e+00 1.603315999999999963e+00 -1.751665999999999945e+00 1.892860000000000098e-01 2.981460000000000221e-01 5.331719999999999793e-01 -4.063910000000000022e-01 -8.930609999999999937e-01 1.403850000000000098e-01 9.024550000000000072e-01 1.262872999999999912e+00 1.251929999999999987e-01 -1.750372000000000039e+00 -8.113439999999999541e-01 5.152250000000000441e-01 4.334270000000000067e-01 1.931090000000000029e-01 1.182072000000000012e+00 -1.236931000000000003e+00
-1.297461999999999893e+00 -8.864729999999999555e-01 -2.209922999999999860e+00 2.457980000000000054e+00 3.592179999999999818e-01 2.323300000000000087e-01 -9.184339999999999726e-01 -9.042900000000000382e-01 -3.220000000000000084e-01 -5.732329999999999925e-01 2.303064000000000000e+00 9.265029999999999655e-01 1.627694999999999892e+00 -7.358590000000000408e-01 7.352760000000000407e-01 -1.869750000000000023e-01 1.563795999999999964e+00 -1.096553000000000111e+00 1.259198999999999957e+00 -4.372869999999999813e-01 -2.356920000000000126e-01 -4.052270000000000039e-01 2.045052000000000092e+00 1.809026000000000023e+00 -6.592499999999999749e-02 1.729046000000000083e+00 1.034663000000000110e+00 -9.565630000000000521e-01 5.689030000000000475e-01 6.713559999999999528e-01 -2.946869999999999767e-01 1.950400000000000050e-02 -1.098942000000000085e+00 6.642080000000000206e-01 -5.737790000000000390e-01 -1.293930000000000025e+00 -4.530100000000000238e-01 -5.654430000000000289e-01 1.199130999999999947e+00 -2.698990000000000000e-01 -7.029000000000000525e-02 2.023092999999999808e+00 -4.039490000000000025e-01 1.501171000000000033e+00 1.324330000000000007e+00 -2.076912000000000091e+00 6.119609999999999772e-01 2.298389999999999878e-01 1.118268000000000040e+00 5.990109999999999602e-01 -6.595739999999999936e-01 4.967139999999999889e-01 -5.270869999999999722e-01 -1.665119000000000016e+00 -6.966210000000000457e-01 6.343609999999999527e-01 1.779222000000000081e+00 -1.382841999999999905e+00 -1.371534000000000031e+00 -3.015749999999999820e-01 8.821430000000000105e-01 -2.981000000000000143e-03 9.048800000000000177e-01 1.757960000000000078e-01 -1.402130000000000098e+00 -2.369225999999999832e+00 -8.281199999999999672e-02 -1.899601000000000095e+00 2.363039999999999863e-01 1.257794000000000079e+00 -1.611317000000000110e+00 -7.123380000000000267e-01 5.591999999999999749e-02 1.194962000000000080e+00 5.065229999999999455e-01 6.751209999999999711e-01 2.922339999999999938e-01 -4.938799999999999857e-01 -4.621210000000000040e-01 -8.487639999999999629e-01 -8.017060000000000297e-01 -3.442300000000000221e-02 -2.530560000000000032e-01 -6.223549999999999915e-01 5.376410000000000355e-01 -9.072909999999999586e-01 -8.728730000000000100e-01 -1.095992999999999995e+00 -8.839930000000000287e-01 2.800400000000000111e-02 -2.079759999999999942e-01 -4.363000000000000211e-01 -1.944359999999999977e-01 -3.309179999999999899e-01 -1.743611999999999940e+00 1.056108000000000047e+00 1.285395000000000065e+00 1.671559999999999990e-01 1.030450000000000088e+00 -3.095950000000000091e-01 -1.784697999999999896e+00 -4.501660000000000106e-01 9.380610000000000337e-01 -1.794840000000000046e-01 -7.243479999999999919e-01 3.237900000000000222e-01 1.605264000000000024e+00 -6.680800000000000627e-02 7.911690000000000111e-01 9.060629999999999518e-01 -6.732899999999999996e-02 -1.676509999999999945e+00 -2.291610000000000036e-01 2.362019999999999953e-01 -2.266599999999999865e-02 -1.230324999999999891e+00 -3.952709999999999835e-01 -1.076024000000000092e+00 7.875500000000000556e-02 2.324355999999999867e+00 -1.445929999999999938e+00 -6.251550000000000162e-01 2.735710000000000086e-01 7.583020000000000316e-01 -1.859329999999999872e-01 -2.026057999999999915e+00 -8.020180000000000087e-01 3.918030000000000124e-01 6.316079999999999472e-01 1.832650000000000112e-01 -2.955019999999999869e-01 1.469380000000000130e-01 1.306102000000000096e+00 9.623800000000000410e-02 1.349337000000000009e+00 8.471700000000000064e-02 1.163445999999999980e+00 -8.591370000000000395e-01 -3.809690000000000021e-01 1.604284999999999961e+00 3.196209999999999885e-01 -7.560470000000000246e-01 1.193392999999999926e+00 -1.310966000000000076e+00 1.085449000000000108e+00 4.338859999999999939e-01 -8.391110000000000513e-01 1.763200000000000045e-01 -4.851980000000000182e-01 4.744889999999999941e-01 -2.310869999999999869e-01 6.855130000000000390e-01 -2.526880000000000237e-01 2.631290000000000018e-01 -3.040349999999999997e-01 -1.114791000000000087e+00 4.926510000000000056e-01 -3.675069999999999726e-01 1.573639999999999928e+00
-3.418200000000000127e-01 -1.326402000000000081e+00 1.731824999999999948e+00 2.530781000000000169e+00 -1.529300000000000104e-01 6.617319999999999869e-01 -1.166390999999999956e+00 -6.388340000000000130e-01 -1.213629000000000069e+00 -8.110770000000000479e-01 5.400390000000000468e-01 -9.108299999999999730e-02 -4.254769999999999941e-01 1.597379999999999911e-01 8.377339999999999787e-01 1.919500999999999902e+00 -5.989999999999999769e-01 -2.714779999999999971e-01 -2.339163000000000103e+00 -1.513809999999999878e-01 -1.923356000000000066e+00 -2.040059999999999929e-01 1.125385000000000080e+00 1.049960000000000060e-01 8.573030000000000372e-01 -5.749279999999999946e-01 5.082099999999999812e-02 1.247729999999999950e-01 6.081099999999999700e-02 2.077859999999999985e-01 9.237049999999999983e-01 -1.984782999999999964e+00 6.609720000000000040e-01 4.511220000000000230e-01 -4.432800000000000074e-01 7.980270000000000419e-01 1.061409999999999965e+00 1.332039999999999891e-01 -2.877239999999999798e-01 1.914897999999999989e+00 8.940519999999999579e-01 -2.569186999999999887e+00 -1.574832000000000010e+00 1.468089999999999951e-01 -1.736936000000000035e+00 -1.371100999999999903e+00 -7.602139999999999453e-01 2.488507999999999942e+00 1.309730000000000061e-01 1.161758999999999986e+00 4.503650000000000153e-01 2.072039999999999993e-01 2.791208000000000133e+00 -8.194240000000000412e-01 -1.447996999999999979e+00 3.347930000000000073e-01 -1.881844999999999990e+00 -1.092781999999999920e+00 9.295980000000000354e-01 2.688980000000000259e-01 3.630809999999999871e-01 1.065409000000000050e+00 7.161729999999999485e-01 -1.090203000000000033e+00 5.377469999999999750e-01 7.945189999999999753e-01 -9.771720000000000406e-01 -2.466971000000000025e+00 -1.002083000000000057e+00 -3.815109999999999890e-01 6.363779999999999992e-01 1.574200000000000044e-01 9.107560000000000100e-01 -6.176129999999999676e-01 -9.441789999999999905e-01 1.011759999999999993e+00 1.407696999999999976e+00 1.338024000000000102e+00 2.158859999999999946e-01 1.164229999999999987e-01 1.137669999999999931e-01 -3.553100000000000147e-01 7.308829999999999494e-01 -1.943979999999999875e-01 -7.087099999999999511e-01 -5.420939999999999648e-01 7.726990000000000247e-01 -5.571439999999999726e-01 7.821569999999999911e-01 7.189470000000000027e-01 -3.614519999999999955e-01 -3.703699999999999770e-01 4.181079999999999797e-01 2.977609999999999979e-01 -1.146595000000000031e+00 1.878581000000000056e+00 -7.454150000000000498e-01 1.771040000000000114e-01 4.181750000000000189e-01 -1.645020000000000093e-01 -7.556340000000000279e-01 8.086670000000000247e-01 -4.448309999999999764e-01 1.116240000000000010e-01 4.927659999999999818e-01 8.071629999999999638e-01 7.102789999999999937e-01 5.184689999999999577e-01 3.370929999999999760e-01 -2.464820000000000066e-01 -2.477989999999999915e-01 6.169310000000000072e-01 5.674709999999999477e-01 -6.538589999999999680e-01 2.893240000000000256e-01 -1.292251000000000039e+00 -1.582583999999999991e+00 -6.665799999999999503e-02 -2.411839000000000066e+00 -1.399828999999999990e+00 1.922609999999999875e-01 8.842069999999999652e-01 -4.399469999999999770e-01 -5.876540000000000097e-01 -3.671470000000000011e-01 -1.863140000000000074e-01 3.133920000000000039e-01 4.873669999999999947e-01 -5.767109999999999737e-01 -3.186149999999999816e-01 2.241829999999999934e-01 -5.397480000000000055e-01 -6.786419999999999675e-01 2.144258999999999915e+00 -1.410077999999999943e+00 -2.470130000000000103e-01 -1.690240000000000076e-01 -5.499799999999999828e-02 7.249060000000000503e-01 1.404554999999999998e+00 6.283079999999999776e-01 1.565000000000000002e-01 -1.583269999999999955e-01 -2.026800000000000129e-02 -8.878099999999999881e-02 -4.663220000000000143e-01 6.021279999999999966e-01 1.325800000000000034e-01 -1.317506000000000066e+00 -3.943360000000000198e-01 1.007301000000000002e+00 1.066419000000000006e+00 1.044526000000000066e+00 1.020119999999999916e+00 3.760350000000000081e-01 2.593190000000000217e-01 2.977600000000000038e-02 -2.747666999999999859e+00 4.995330000000000048e-01
-3.101209999999999800e-01 1.901480000000000115e-01 4.621900000000000314e-02 1.736966000000000010e+00 -1.316395999999999900e+00 -4.076319999999999943e-01 6.410399999999999432e-02 -5.847729999999999873e-01 -1.032509999999999956e-01 2.492747000000000046e+00 -7.713290000000000424e-01 8.426179999999999781e-01 2.043852999999999920e+00 2.076050000000000118e-01 -7.068980000000000263e-01 4.359330000000000149e-01 1.313711000000000073e+00 1.371559999999999890e+00 2.018386000000000013e+00 -4.496280000000000276e-01 -3.230790000000000051e-01 1.681737999999999955e+00 -1.020312000000000108e+00 -1.865364999999999940e+00 2.250780000000000003e-01 -2.174399999999999944e-02 2.241180000000000117e-01 -8.351699999999999402e-02 -1.830110000000000070e-01 6.698119999999999630e-01 6.130290000000000461e-01 2.520879999999999788e-01 -8.988699999999999468e-02 6.876179999999999515e-01 1.679524999999999935e+00 1.381351999999999913e+00 -2.584763999999999839e+00 -1.112103999999999981e+00 -1.763042999999999916e+00 1.453039999999999887e-01 -2.236009999999999942e-01 8.179659999999999709e-01 -1.079134999999999955e+00 1.959859999999999935e-01 1.561644000000000032e+00 -4.965319999999999734e-01 9.466090000000000337e-01 -8.340400000000000591e-02 -6.009459999999999802e-01 9.974709999999999965e-01 3.024900000000000158e-02 1.593680000000000097e-01 -1.366313000000000111e+00 -1.045115999999999934e+00 -3.458570000000000255e-01 1.287503000000000064e+00 6.226739999999999498e-01 -1.382570000000000077e+00 -9.901999999999999691e-01 9.690729999999999622e-01 5.243440000000000323e-01 -7.619160000000000377e-01 3.483729999999999882e-01 -1.873652000000000095e+00 2.477701000000000153e+00 1.068135999999999974e+00 -1.273706000000000005e+00 -1.840940000000000076e-01 -1.006996000000000002e+00 -2.414038999999999824e+00 2.939527000000000001e+00 -4.767699999999999716e-02 -1.023687000000000014e+00 8.989979999999999638e-01 1.302442000000000100e+00 1.533071999999999990e+00 5.820229999999999571e-01 6.216679999999999984e-01 -2.399462999999999901e+00 2.250729999999999953e-01 -3.326200000000000268e-01 1.988250000000000017e-01 1.252280000000000060e-01 7.627150000000000318e-01 -6.683550000000000324e-01 -1.010560000000000069e-01 2.872870000000000146e-01 4.942150000000000154e-01 3.054899999999999977e-02 3.626100000000000156e-02 -1.731894000000000045e+00 -1.935890000000000111e-01 1.693640999999999952e+00 -4.874740000000000184e-01 -6.282609999999999584e-01 -1.477920000000000067e-01 -6.104380000000000361e-01 7.290130000000000221e-01 -1.196247000000000060e+00 -1.083823999999999899e+00 1.479243000000000086e+00 1.686739999999999906e-01 -1.444799999999999973e-01 -6.291039999999999965e-01 -8.574190000000000422e-01 1.264267000000000030e+00 6.457929999999999504e-01 -1.827717000000000036e+00 8.225919999999999899e-01 -1.404322999999999988e+00 -1.607389999999999930e-01 1.539595000000000047e+00 9.292780000000000484e-01 -3.853579999999999783e-01 7.679059999999999775e-01 8.142239999999999478e-01 -1.076001999999999903e+00 1.183730000000000060e-01 -1.155798000000000103e+00 6.268820000000000503e-01 -2.771970000000000267e-01 -1.832303000000000015e+00 -4.945470000000000144e-01 -5.763220000000000010e-01 4.521209999999999951e-01 5.439559999999999951e-01 -4.044500000000000178e-02 2.846009999999999929e-01 1.604881000000000002e+00 4.598050000000000193e-01 2.676350000000000118e-01 -8.297539999999999916e-01 -1.138719000000000037e+00 -1.606730999999999909e+00 1.136490000000000000e-01 1.313960999999999935e+00 -2.836679999999999757e-01 -5.263109999999999733e-01 -1.256312000000000095e+00 3.761360000000000259e-01 -2.475849999999999995e-01 1.255994999999999973e+00 -4.221922000000000175e+00 -5.613559999999999661e-01 1.346040000000000014e-01 -5.551110000000000211e-01 4.347010000000000041e-01 -5.260839999999999961e-01 6.820680000000000076e-01 -1.902158999999999933e+00 -1.341930000000000067e-01 1.081909000000000010e+00 9.031799999999999551e-02 1.299646000000000079e+00 -3.969699999999999895e-01 4.426820000000000199e-01 5.124009999999999954e-01 -9.750999999999999945e-02 -6.955970000000000208e-01
-1.007959000000000049e+00 5.683200000000000057e-02 -9.473179999999999934e-01 6.764539999999999997e-01 -9.604749999999999677e-01 -1.062408999999999937e+00 -3.137229999999999741e-01 9.729170000000000318e-01 2.424769999999999981e-01 -1.021012000000000031e+00 2.035029999999999895e-01 2.827999999999999958e-01 1.261950000000000016e-01 -2.920449999999999990e-01 7.865999999999999381e-02 8.867450000000000054e-01 -2.642829999999999901e-01 1.105659999999999976e-01 -3.946999999999999953e-01 1.028993999999999964e+00 -1.624430000000000041e-01 4.110340000000000105e-01 -7.685560000000000169e-01 -1.048205000000000053e+00 2.579250000000000154e-01 -5.768889999999999851e-01 -3.353479999999999794e-01 -5.486600000000000366e-01 7.621999999999999886e-01 -1.095985999999999905e+00 8.749559999999999560e-01 -2.797479999999999967e-01 3.619629999999999792e-01 5.574850000000000083e-01 -8.280370000000000230e-01 -7.985100000000000531e-01 -3.628460000000000019e-01 -3.974860000000000060e-01 6.001370000000000315e-01 1.949649999999999994e-01 5.439730000000000398e-01 -1.042189999999999950e+00 -1.185879999999999990e-01 1.826148000000000104e+00 -1.070789999999999936e-01 -9.594479999999999675e-01 -1.394565999999999972e+00 8.190499999999999448e-01 1.827104999999999979e+00 1.086298999999999904e+00 1.040689999999999948e-01 -6.566899999999999959e-01 -5.105910000000000171e-01 6.976849999999999996e-01 -1.985709999999999975e-01 -6.397119999999999473e-01 -1.788191000000000086e+00 1.640671999999999908e+00 2.318189999999999973e-01 1.195306999999999897e+00 9.471410000000000107e-01 8.808770000000000211e-01 2.875030000000000086e-01 -1.100710999999999995e+00 3.761140000000000039e-01 1.391742999999999952e+00 -5.348509999999999653e-01 6.838809999999999611e-01 -1.056041000000000007e+00 -2.247159999999999991e-01 8.010469999999999535e-01 8.228290000000000326e-01 -3.733130000000000059e-01 8.120030000000000303e-01 4.490000000000000176e-04 -1.527754999999999974e+00 -8.440280000000000005e-01 1.154226999999999892e+00 1.963300000000000115e-02 3.844859999999999944e-01 -1.550169999999999881e-01 1.582490000000000008e-01 -3.247769999999999824e-01 3.650300000000000072e-02 4.826050000000000062e-01 4.856099999999999861e-01 7.039490000000000469e-01 2.686540000000000039e-01 -2.428770000000000095e-01 -7.640320000000000444e-01 1.585249999999999992e-01 7.391670000000000185e-01 4.862130000000000063e-01 -1.754871999999999987e+00 -9.297819999999999974e-01 3.635220000000000118e-01 2.144852999999999899e+00 -4.737850000000000117e-01 1.011627999999999972e+00 1.520710000000000117e-01 3.270629999999999926e-01 7.928370000000000140e-01 -1.136034999999999906e+00 -1.285550000000000026e-01 -1.658959999999999879e-01 -1.199542000000000108e+00 2.177449999999999941e-01 2.482840000000000047e-01 -1.397430000000000061e-01 5.040339999999999820e-01 2.536260000000000181e-01 -9.892149999999999554e-01 -3.545360000000000178e-01 3.092500000000000249e-01 1.073121999999999909e+00 -5.127680000000000016e-01 -1.437840999999999925e+00 -5.194400000000000128e-01 -5.380100000000000160e-02 -2.358909999999999896e-01 -4.578169999999999740e-01 -9.254269999999999996e-01 -4.582140000000000102e-01 8.541640000000000343e-01 -7.379360000000000364e-01 2.763499999999999845e-01 1.622490000000000043e-01 -2.917830000000000146e-01 -1.153631000000000073e+00 6.591400000000000037e-02 1.059679000000000038e+00 -3.281870000000000065e-01 6.916109999999999758e-01 1.724269999999999969e-01 5.228340000000000209e-01 -1.287098999999999993e+00 5.616000000000000159e-02 7.833139999999999548e-01 -5.857299999999999729e-01 -4.138490000000000224e-01 -9.856190000000000229e-01 -4.166119999999999823e-01 -7.925440000000000262e-01 -2.582079999999999931e-01 1.157372999999999985e+00 3.306400000000000311e-02 -5.875000000000000014e-03 1.184995999999999938e+00 -9.612500000000000211e-02 1.421749999999999958e-01 2.555769999999999986e-01 -3.848190000000000222e-01 4.055700000000000277e-02 1.839339999999999864e-01 4.764140000000000041e-01 1.298775999999999931e+00 4.154450000000000087e-01 -3.026760000000000006e-01 -2.715100000000000152e-02