1.610409999999999897e+00 8.451400000000000023e-01 4.316279999999999895e+00 1.577420000000000044e+00 8.626399999999999624e-01 9.287580000000000169e+00 -3.720000000000000216e-03 3.644849999999999923e+00 4.339209999999999567e+00 -5.910000000000000323e-03 3.620639999999999858e+00 9.284140000000000725e+00 4.596400000000000041e+00 8.565700000000000536e-01 4.329259999999999664e+00 4.608690000000000175e+00 8.628500000000000059e-01 9.282909999999999329e+00 3.111839999999999939e+00 3.582889999999999908e+00 4.335149999999999615e+00 3.095769999999999911e+00 3.573519999999999808e+00 9.238120000000000331e+00 1.510000000000000057e-03 1.793600000000000083e+00 1.833069999999999977e+00 -1.495999999999999934e-02 1.791060000000000096e+00 7.085009999999999586e+00 -1.559469999999999912e+00 4.476490000000000080e+00 1.889899999999999913e+00 -1.580449999999999910e+00 4.481139999999999901e+00 6.804100000000000037e+00 3.116750000000000131e+00 1.803660000000000041e+00 1.880069999999999908e+00 3.099040000000000017e+00 1.802480000000000082e+00 6.804120000000000168e+00 1.561339999999999950e+00 4.496190000000000353e+00 1.887769999999999948e+00 1.559530000000000083e+00 4.484189999999999898e+00 6.803060000000000329e+00 1.548710000000000031e+00 9.004199999999999982e-01 2.491610000000000102e+00 1.533379999999999965e+00 9.024400000000000199e-01 7.330899999999999750e+00 7.950000000000000469e-03 3.564449999999999896e+00 2.501910000000000078e+00 -1.226999999999999966e-02 3.574009999999999909e+00 7.323380000000000223e+00 4.681939999999999991e+00 9.149599999999999955e-01 2.499340000000000117e+00 4.667349999999999888e+00 8.998500000000000387e-01 7.332900000000000418e+00 3.107070000000000221e+00 3.586320000000000174e+00 2.466000000000000192e+00 3.100119999999999987e+00 3.582860000000000156e+00 7.320050000000000168e+00 -1.072999999999999995e-02 1.782229999999999981e+00 9.736810000000000187e+00 -1.512809999999999988e+00 4.498969999999999914e+00 4.878669999999999618e+00 -1.578160000000000007e+00 4.470170000000000421e+00 9.769999999999999171e-03 3.103670000000000151e+00 1.745060000000000056e+00 4.886689999999999756e+00 3.107619999999999827e+00 1.821059999999999901e+00 1.094000000000000007e-02 1.522240000000000038e+00 4.508600000000000385e+00 4.876360000000000028e+00 1.585080000000000044e+00 4.473569999999999602e+00 8.529999999999999388e-03
1.479959999999999942e+00 8.559900000000000286e-01 4.385200000000000209e+00 1.618559999999999999e+00 8.079699999999999660e-01 9.351240000000000663e+00 9.429999999999999147e-03 3.629739999999999966e+00 4.415309999999999846e+00 1.310399999999999898e-01 3.698599999999999888e+00 9.244999999999999218e+00 4.525699999999999612e+00 8.888300000000000090e-01 4.497930000000000206e+00 4.570240000000000080e+00 9.377600000000000380e-01 9.313729999999999620e+00 2.947049999999999947e+00 3.588449999999999918e+00 4.402459999999999596e+00 3.134310000000000151e+00 3.616950000000000109e+00 9.262859999999999872e+00 -8.280999999999999472e-02 1.839609999999999967e+00 1.789860000000000007e+00 4.818999999999999673e-02 1.814710000000000045e+00 7.103760000000000296e+00 -1.561020000000000074e+00 4.435789999999999900e+00 1.873709999999999987e+00 -1.548049999999999926e+00 4.553899999999999615e+00 6.696699999999999875e+00 3.058469999999999800e+00 1.837550000000000017e+00 1.909000000000000030e+00 2.904560000000000031e+00 1.816500000000000004e+00 6.741839999999999833e+00 1.529579999999999940e+00 4.507710000000000328e+00 1.977549999999999919e+00 1.549190000000000067e+00 4.544369999999999798e+00 6.720760000000000289e+00 1.364430000000000032e+00 9.140300000000000091e-01 2.509560000000000013e+00 1.556529999999999969e+00 8.362699999999999578e-01 7.333239999999999981e+00 1.455000000000000043e-02 3.572439999999999838e+00 2.589519999999999822e+00 1.068700000000000067e-01 3.666349999999999998e+00 7.332049999999999734e+00 4.721580000000000332e+00 9.468600000000000350e-01 2.575410000000000199e+00 4.627679999999999794e+00 9.356499999999999817e-01 7.027779999999999916e+00 3.160000000000000142e+00 3.580830000000000179e+00 2.576470000000000038e+00 3.187139999999999862e+00 3.550060000000000215e+00 7.171669999999999767e+00 5.111000000000000265e-02 1.864349999999999952e+00 9.585119999999999862e+00 -1.530869999999999953e+00 4.431890000000000107e+00 4.831760000000000055e+00 -1.473829999999999973e+00 4.413090000000000401e+00 7.593999999999999362e-02 2.915109999999999868e+00 1.859159999999999924e+00 4.829720000000000013e+00 3.125779999999999781e+00 1.781339999999999923e+00 8.716999999999999749e-02 1.492189999999999905e+00 4.524379999999999846e+00 4.861749999999999794e+00 1.637680000000000025e+00 4.496019999999999683e+00 6.217000000000000304e-02
1.544370000000000021e+00 8.827099999999999946e-01 4.471040000000000347e+00 1.559050000000000047e+00 8.387799999999999701e-01 9.235870000000000246e+00 -5.585999999999999993e-02 3.648089999999999833e+00 4.368210000000000370e+00 3.678000000000000019e-02 3.523219999999999796e+00 9.261879999999999669e+00 4.701010000000000133e+00 9.361899999999999666e-01 4.416430000000000078e+00 4.685629999999999740e+00 9.375799999999999690e-01 9.216189999999999216e+00 3.082850000000000090e+00 3.571909999999999918e+00 4.347170000000000201e+00 3.068909999999999805e+00 3.618930000000000202e+00 9.208019999999999428e+00 -7.033999999999999975e-02 1.843020000000000103e+00 1.987679999999999891e+00 1.835000000000000173e-02 1.806570000000000009e+00 6.921809999999999796e+00 -1.624530000000000030e+00 4.464240000000000208e+00 1.841900000000000093e+00 -1.504999999999999893e+00 4.624590000000000423e+00 6.783140000000000391e+00 2.976539999999999964e+00 1.681999999999999940e+00 1.860319999999999974e+00 3.254610000000000003e+00 1.831150000000000055e+00 6.894940000000000069e+00 1.465330000000000021e+00 4.492340000000000444e+00 1.836959999999999926e+00 1.472420000000000062e+00 4.497419999999999973e+00 6.880259999999999820e+00 1.426979999999999915e+00 9.242099999999999760e-01 2.512739999999999974e+00 1.567770000000000108e+00 9.837599999999999678e-01 7.180399999999999672e+00 -9.808000000000000052e-02 3.592039999999999900e+00 2.569560000000000066e+00 -1.278700000000000114e-01 3.477069999999999883e+00 7.359110000000000262e+00 4.575630000000000308e+00 8.851700000000000124e-01 2.517279999999999962e+00 4.867189999999999905e+00 8.219899999999999984e-01 7.254129999999999967e+00 3.036070000000000046e+00 3.560989999999999878e+00 2.461920000000000108e+00 3.138349999999999973e+00 3.588280000000000136e+00 7.329080000000000261e+00 9.184000000000000496e-02 1.799979999999999913e+00 9.795189999999999841e+00 -1.481700000000000017e+00 4.559120000000000061e+00 4.914399999999999658e+00 -1.437980000000000036e+00 4.414640000000000342e+00 1.975999999999999979e-02 3.100109999999999921e+00 1.676369999999999916e+00 4.830400000000000027e+00 3.053659999999999819e+00 1.843960000000000043e+00 9.640610000000000568e+00 1.404570000000000096e+00 4.597319999999999851e+00 4.858889999999999709e+00 1.495400000000000063e+00 4.571399999999999686e+00 9.681820000000000093e+00
1.290489999999999915e+00 1.093199999999999950e+00 4.484600000000000364e+00 1.581809999999999938e+00 1.017279999999999962e+00 9.065080000000000027e+00 3.536000000000000254e-02 3.122500000000000053e+00 4.396939999999999849e+00 8.147000000000000075e-02 3.616439999999999877e+00 9.015159999999999840e+00 4.977610000000000312e+00 1.092370000000000063e+00 4.476060000000000372e+00 4.725050000000000416e+00 1.017549999999999955e+00 9.168969999999999843e+00 2.990899999999999892e+00 3.448659999999999837e+00 4.221960000000000157e+00 3.002660000000000107e+00 3.535369999999999902e+00 9.200770000000000337e+00 -6.876000000000000167e-02 1.788440000000000030e+00 1.947380000000000111e+00 -1.332000000000000024e-02 1.859259999999999913e+00 6.261809999999999654e+00 -1.658849999999999936e+00 4.332849999999999646e+00 1.900800000000000045e+00 -1.592470000000000052e+00 4.431160000000000210e+00 6.598880000000000301e+00 2.916500000000000092e+00 1.722229999999999928e+00 1.878980000000000095e+00 3.035330000000000084e+00 1.708229999999999915e+00 6.661880000000000024e+00 1.456509999999999971e+00 4.462989999999999569e+00 1.897850000000000037e+00 1.521069999999999922e+00 4.434730000000000061e+00 6.720600000000000129e+00 1.453619999999999912e+00 8.628599999999999604e-01 2.508539999999999992e+00 1.434709999999999930e+00 9.177499999999999547e-01 7.258659999999999890e+00 -1.552600000000000091e-01 3.649589999999999890e+00 2.381120000000000125e+00 -5.890000000000000097e-02 3.579590000000000050e+00 7.184580000000000410e+00 4.481770000000000032e+00 9.889700000000000157e-01 2.396170000000000133e+00 4.631420000000000314e+00 1.006909999999999972e+00 7.222129999999999939e+00 2.994839999999999947e+00 3.371100000000000207e+00 2.430039999999999978e+00 2.912389999999999812e+00 3.417149999999999910e+00 7.429689999999999905e+00 1.624700000000000033e-01 1.743959999999999955e+00 1.346600000000000019e-01 -1.545520000000000005e+00 4.311530000000000307e+00 4.708269999999999733e+00 -1.553849999999999953e+00 4.507729999999999571e+00 9.466939999999999245e+00 3.054780000000000051e+00 1.628759999999999986e+00 4.836660000000000181e+00 3.088589999999999947e+00 1.750259999999999927e+00 9.562329999999999330e+00 1.442849999999999966e+00 4.447600000000000442e+00 4.628519999999999968e+00 1.551970000000000072e+00 4.512439999999999785e+00 9.480040000000000688e+00
1.613699999999999912e+00 8.835300000000000376e-01 4.265959999999999752e+00 1.542210000000000081e+00 9.428299999999999459e-01 9.227930000000000632e+00 -1.574500000000000066e-01 3.628019999999999801e+00 4.224949999999999761e+00 -7.667000000000000204e-02 3.596719999999999917e+00 9.192600000000000549e+00 4.472459999999999880e+00 7.601400000000000379e-01 4.212710000000000399e+00 4.637129999999999974e+00 9.146100000000000341e-01 9.275660000000000238e+00 3.082679999999999865e+00 3.642770000000000064e+00 4.259100000000000108e+00 3.048160000000000203e+00 3.549240000000000173e+00 9.269330000000000069e+00 -3.991000000000000103e-02 1.835250000000000048e+00 1.866880000000000095e+00 -1.499999999999999944e-02 1.754569999999999963e+00 6.869239999999999569e+00 -1.546710000000000029e+00 4.510049999999999670e+00 1.886830000000000007e+00 -1.590950000000000086e+00 4.576030000000000264e+00 6.762690000000000090e+00 3.085989999999999789e+00 1.818910000000000027e+00 1.818880000000000052e+00 3.143429999999999946e+00 1.956919999999999993e+00 6.796739999999999782e+00 1.530699999999999950e+00 4.440050000000000274e+00 1.910660000000000025e+00 1.492029999999999967e+00 4.463860000000000383e+00 6.805629999999999846e+00 1.420520000000000005e+00 8.129899999999999904e-01 2.482019999999999893e+00 1.487700000000000022e+00 8.840799999999999770e-01 7.341029999999999944e+00 2.469999999999999973e-03 3.658560000000000034e+00 2.469580000000000108e+00 -1.581400000000000028e-01 3.453489999999999949e+00 7.332740000000000258e+00 4.582449999999999690e+00 8.938800000000000079e-01 2.472519999999999829e+00 4.711599999999999788e+00 8.371300000000000407e-01 7.272109999999999630e+00 3.038460000000000161e+00 3.499830000000000219e+00 2.436490000000000045e+00 3.037290000000000045e+00 3.625500000000000167e+00 7.379710000000000214e+00 3.461999999999999800e-02 1.852300000000000058e+00 1.476899999999999880e-01 -1.547739999999999894e+00 4.540479999999999627e+00 4.888989999999999725e+00 -1.468650000000000011e+00 4.525689999999999991e+00 5.040000000000000209e-03 3.120839999999999836e+00 1.770410000000000039e+00 4.879310000000000258e+00 3.113970000000000127e+00 1.711379999999999901e+00 9.726210000000000022e+00 1.487160000000000037e+00 4.347710000000000186e+00 4.999819999999999709e+00 1.521879999999999900e+00 4.497410000000000352e+00 9.707969999999999544e+00
1.579239999999999977e+00 7.692999999999999838e-01 4.369159999999999933e+00 1.568330000000000002e+00 9.767000000000000126e-01 9.199519999999999698e+00 2.540999999999999856e-02 3.597599999999999909e+00 4.254400000000000404e+00 -1.990000000000000102e-02 3.656179999999999986e+00 9.179859999999999687e+00 4.613339999999999996e+00 9.164600000000000524e-01 4.264490000000000336e+00 4.566840000000000011e+00 8.631600000000000383e-01 9.170540000000000802e+00 3.070260000000000211e+00 3.536200000000000010e+00 4.362169999999999881e+00 3.065209999999999990e+00 3.577290000000000081e+00 9.129030000000000200e+00 -1.076199999999999934e-01 1.768799999999999928e+00 1.751249999999999973e+00 -3.187000000000000249e-02 1.815979999999999928e+00 7.074290000000000411e+00 -1.529120000000000035e+00 4.375840000000000174e+00 1.871669999999999945e+00 -1.558519999999999905e+00 4.412189999999999834e+00 6.768060000000000187e+00 2.925910000000000011e+00 1.824410000000000087e+00 1.890519999999999978e+00 2.979719999999999924e+00 1.706280000000000019e+00 6.778990000000000293e+00 1.594610000000000083e+00 4.438749999999999751e+00 1.917480000000000073e+00 1.490629999999999900e+00 4.441720000000000113e+00 6.806350000000000122e+00 1.394609999999999905e+00 8.163899999999999491e-01 2.485180000000000167e+00 1.472050000000000081e+00 8.717899999999999539e-01 7.290470000000000006e+00 1.967999999999999958e-02 3.554479999999999862e+00 2.379129999999999967e+00 3.817000000000000254e-02 3.597640000000000171e+00 7.280079999999999885e+00 4.476759999999999629e+00 9.323200000000000376e-01 2.489869999999999806e+00 4.554310000000000080e+00 8.853999999999999648e-01 7.301079999999999792e+00 3.064859999999999918e+00 3.523400000000000087e+00 2.507010000000000183e+00 3.044900000000000162e+00 3.455000000000000071e+00 7.301730000000000054e+00 -4.219999999999999793e-03 1.835879999999999956e+00 9.564519999999999911e+00 -1.406439999999999912e+00 4.393379999999999619e+00 4.931370000000000253e+00 -1.554289999999999949e+00 4.500270000000000437e+00 9.619310000000000471e+00 2.938470000000000137e+00 1.769539999999999891e+00 4.873540000000000205e+00 3.078809999999999825e+00 1.810400000000000009e+00 9.745020000000000238e+00 1.512440000000000007e+00 4.336269999999999847e+00 4.926379999999999981e+00 1.467950000000000088e+00 4.486790000000000056e+00 9.750059999999999505e+00
1.337059999999999915e+00 9.039899999999999602e-01 4.250869999999999926e+00 1.510140000000000038e+00 7.808599999999999985e-01 9.287649999999999295e+00 -9.619999999999999385e-02 3.626079999999999970e+00 4.287689999999999557e+00 3.157999999999999696e-02 3.578339999999999854e+00 9.268649999999999167e+00 4.407709999999999795e+00 9.911699999999999955e-01 4.124769999999999825e+00 4.596350000000000158e+00 9.804000000000000492e-01 9.180839999999999890e+00 3.004039999999999822e+00 3.529589999999999783e+00 4.337629999999999875e+00 3.159260000000000179e+00 3.644969999999999821e+00 9.352750000000000341e+00 -7.084999999999999631e-02 1.828009999999999913e+00 1.724660000000000082e+00 9.302000000000000546e-02 1.724469999999999947e+00 6.730139999999999567e+00 -1.566009999999999902e+00 4.640620000000000189e+00 1.971309999999999896e+00 -1.530280000000000085e+00 4.377659999999999663e+00 6.769910000000000316e+00 3.329839999999999911e+00 1.789130000000000109e+00 1.837220000000000075e+00 3.198379999999999779e+00 1.791860000000000008e+00 6.853049999999999642e+00 1.637089999999999934e+00 4.234110000000000262e+00 1.985409999999999897e+00 1.457219999999999960e+00 4.537049999999999805e+00 6.872779999999999667e+00 1.712970000000000104e+00 9.210000000000000409e-01 2.419649999999999856e+00 1.454469999999999930e+00 8.176900000000000279e-01 7.281509999999999927e+00 1.979999999999999989e-03 3.686990000000000212e+00 2.512459999999999916e+00 -3.477999999999999842e-02 3.504410000000000025e+00 7.374489999999999768e+00 4.774869999999999948e+00 7.411999999999999700e-01 2.343379999999999797e+00 4.675010000000000332e+00 8.828000000000000291e-01 7.306400000000000006e+00 3.245449999999999946e+00 3.576600000000000001e+00 2.531029999999999891e+00 3.045720000000000205e+00 3.571140000000000203e+00 7.372860000000000191e+00 9.765000000000000069e-02 1.767549999999999955e+00 9.714460000000000761e+00 -1.637489999999999890e+00 4.454830000000000290e+00 4.804389999999999716e+00 -1.423669999999999991e+00 4.370149999999999757e+00 5.007000000000000339e-02 2.872230000000000061e+00 1.768010000000000081e+00 4.898360000000000269e+00 3.025619999999999976e+00 1.868100000000000094e+00 7.924000000000000488e-02 1.414479999999999960e+00 4.605260000000000353e+00 4.834990000000000343e+00 1.552669999999999995e+00 4.509759999999999991e+00 9.786000000000000254e-02
1.526489999999999903e+00 8.860799999999999788e-01 4.371850000000000236e+00 1.559630000000000072e+00 8.570799999999999530e-01 9.322530000000000427e+00 -5.919999999999999915e-03 3.530240000000000045e+00 4.391689999999999650e+00 -1.610999999999999932e-02 3.590850000000000097e+00 9.326480000000000103e+00 4.636879999999999669e+00 8.834800000000000431e-01 4.374390000000000001e+00 4.576109999999999900e+00 8.542199999999999793e-01 9.316890000000000782e+00 3.078640000000000043e+00 3.550879999999999814e+00 4.293929999999999580e+00 3.083410000000000206e+00 3.547349999999999781e+00 9.316390000000000171e+00 -5.680000000000000153e-03 1.772639999999999993e+00 1.800650000000000084e+00 -9.780000000000000498e-03 1.773570000000000091e+00 7.161529999999999951e+00 -1.556610000000000049e+00 4.439510000000000289e+00 1.857499999999999929e+00 -1.563530000000000086e+00 4.438830000000000275e+00 6.833099999999999952e+00 3.095889999999999809e+00 1.773479999999999945e+00 1.841890000000000027e+00 3.088659999999999961e+00 1.785670000000000091e+00 6.842030000000000278e+00 1.537339999999999929e+00 4.433679999999999843e+00 1.854070000000000107e+00 1.562140000000000084e+00 4.441740000000000244e+00 6.826780000000000292e+00 1.529910000000000103e+00 8.799900000000000500e-01 2.541850000000000165e+00 1.525819999999999954e+00 8.932200000000000140e-01 7.415779999999999816e+00 -5.360000000000000181e-03 3.533970000000000056e+00 2.552179999999999893e+00 1.250000000000000026e-03 3.541560000000000041e+00 7.422439999999999927e+00 4.641759999999999664e+00 8.815399999999999903e-01 2.541669999999999874e+00 4.631409999999999805e+00 8.816699999999999537e-01 7.412650000000000183e+00 3.074699999999999989e+00 3.542969999999999953e+00 2.453749999999999876e+00 3.089789999999999814e+00 3.551629999999999843e+00 7.385950000000000237e+00 -2.145999999999999991e-02 1.772080000000000100e+00 9.791420000000000456e+00 -1.536759999999999904e+00 4.451609999999999623e+00 4.894560000000000244e+00 -1.544839999999999991e+00 4.444689999999999586e+00 9.874420000000000641e+00 3.085129999999999928e+00 1.754040000000000044e+00 4.874369999999999870e+00 3.068490000000000162e+00 1.755060000000000064e+00 9.860139999999999461e+00 1.515279999999999960e+00 4.457519999999999705e+00 4.887039999999999829e+00 1.527130000000000098e+00 4.442330000000000112e+00 9.873950000000000671e+00
1.432199999999999918e+00 9.529600000000000293e-01 4.360229999999999606e+00 1.615560000000000107e+00 8.465799999999999992e-01 9.166550000000000864e+00 1.678999999999999937e-02 3.466060000000000141e+00 4.348300000000000054e+00 1.013000000000000012e-02 3.622570000000000068e+00 9.174450000000000216e+00 4.717319999999999958e+00 9.510499999999999510e-01 4.377710000000000434e+00 4.555900000000000283e+00 8.746899999999999675e-01 9.149060000000000414e+00 3.071769999999999889e+00 3.553249999999999797e+00 4.351530000000000342e+00 3.086949999999999861e+00 3.567000000000000171e+00 9.108449999999999491e+00 6.100000000000000387e-03 1.799269999999999925e+00 1.769290000000000029e+00 2.300000000000000070e-04 1.785369999999999902e+00 6.930220000000000269e+00 -1.534610000000000030e+00 4.463890000000000136e+00 1.905680000000000041e+00 -1.559369999999999923e+00 4.436550000000000438e+00 6.686020000000000074e+00 3.079320000000000057e+00 1.821399999999999908e+00 1.898079999999999989e+00 3.077389999999999848e+00 1.789239999999999942e+00 6.689960000000000129e+00 1.570170000000000066e+00 4.470640000000000391e+00 1.897580000000000044e+00 1.539050000000000029e+00 4.443010000000000126e+00 6.673589999999999911e+00 1.500669999999999948e+00 9.431699999999999529e-01 2.537440000000000140e+00 1.573080000000000034e+00 8.744699999999999696e-01 7.199150000000000382e+00 9.400000000000000369e-03 3.530380000000000074e+00 2.499169999999999892e+00 -2.079999999999999818e-03 3.589869999999999894e+00 7.185690000000000133e+00 4.682150000000000034e+00 9.388999999999999568e-01 2.541619999999999990e+00 4.588890000000000136e+00 8.740400000000000391e-01 7.220810000000000173e+00 3.077900000000000080e+00 3.578689999999999927e+00 2.515219999999999789e+00 3.066370000000000040e+00 3.557110000000000216e+00 7.111839999999999939e+00 4.170000000000000095e-03 1.797649999999999970e+00 9.571009999999999351e+00 -1.515079999999999982e+00 4.467900000000000205e+00 4.812540000000000262e+00 -1.535250000000000004e+00 4.449629999999999974e+00 3.205000000000000210e-02 3.088649999999999896e+00 1.776639999999999997e+00 4.789900000000000269e+00 3.081109999999999793e+00 1.782450000000000090e+00 2.486000000000000015e-02 1.525859999999999994e+00 4.473650000000000126e+00 4.805290000000000283e+00 1.532720000000000082e+00 4.451120000000000410e+00 3.427999999999999797e-02
1.599159999999999915e+00 8.625899999999999679e-01 4.307100000000000151e+00 1.572019999999999973e+00 8.791400000000000325e-01 9.243710000000000093e+00 -2.333000000000000004e-02 3.636369999999999880e+00 4.306910000000000238e+00 -3.132999999999999674e-02 3.641649999999999832e+00 9.250949999999999562e+00 4.574489999999999945e+00 8.567799999999999860e-01 4.317070000000000185e+00 4.593700000000000117e+00 8.811499999999999888e-01 9.245730000000000004e+00 3.070429999999999993e+00 3.571489999999999831e+00 4.381160000000000387e+00 3.072929999999999939e+00 3.582570000000000032e+00 9.226160000000000139e+00 -8.829999999999999308e-03 1.786159999999999970e+00 1.802759999999999918e+00 -1.906000000000000055e-02 1.793169999999999931e+00 7.016949999999999577e+00 -1.586840000000000028e+00 4.461680000000000312e+00 1.886090000000000044e+00 -1.574179999999999913e+00 4.485120000000000218e+00 6.772599999999999731e+00 3.084639999999999826e+00 1.818070000000000075e+00 1.886300000000000088e+00 3.082749999999999879e+00 1.796240000000000059e+00 6.785669999999999646e+00 1.565649999999999986e+00 4.471160000000000245e+00 1.889469999999999983e+00 1.529670000000000085e+00 4.466569999999999929e+00 6.779670000000000307e+00 1.524559999999999915e+00 9.050399999999999556e-01 2.504830000000000112e+00 1.502769999999999939e+00 9.130399999999999627e-01 7.281749999999999723e+00 -6.239999999999999887e-03 3.553189999999999849e+00 2.509659999999999780e+00 -2.414000000000000173e-02 3.553350000000000009e+00 7.290460000000000385e+00 4.664200000000000124e+00 9.115699999999999914e-01 2.526600000000000179e+00 4.666220000000000034e+00 9.156100000000000350e-01 7.292189999999999728e+00 3.082279999999999909e+00 3.585350000000000037e+00 2.547969999999999846e+00 3.088039999999999896e+00 3.587400000000000144e+00 7.260399999999999743e+00 -2.305000000000000104e-02 1.797989999999999977e+00 9.676809999999999690e+00 -1.531870000000000065e+00 4.498999999999999666e+00 4.853629999999999889e+00 -1.563870000000000093e+00 4.464159999999999684e+00 3.436000000000000165e-02 3.088670000000000027e+00 1.745589999999999975e+00 4.871699999999999697e+00 3.091899999999999871e+00 1.800689999999999902e+00 2.161000000000000074e-02 1.488029999999999964e+00 4.484210000000000029e+00 4.865310000000000024e+00 1.557760000000000034e+00 4.478209999999999802e+00 1.444999999999999930e-02
1.591569999999999929e+00 8.609499999999999931e-01 4.298650000000000304e+00 1.563919999999999977e+00 8.707200000000000495e-01 9.136960000000000193e+00 -1.705999999999999878e-02 3.648249999999999993e+00 4.293590000000000018e+00 -8.999999999999999320e-03 3.575940000000000119e+00 9.156940000000000524e+00 4.583380000000000010e+00 8.505800000000000027e-01 4.298680000000000057e+00 4.636120000000000019e+00 8.716599999999999904e-01 9.148789999999999978e+00 3.101939999999999920e+00 3.570840000000000014e+00 4.384159999999999613e+00 3.092989999999999906e+00 3.565789999999999793e+00 9.146679999999999922e+00 3.020000000000000115e-03 1.780929999999999902e+00 1.807369999999999921e+00 -9.740000000000000394e-03 1.770659999999999901e+00 6.882690000000000197e+00 -1.584109999999999907e+00 4.460239999999999760e+00 1.865089999999999915e+00 -1.532289999999999930e+00 4.467190000000000438e+00 6.741839999999999833e+00 3.102529999999999788e+00 1.815299999999999914e+00 1.858370000000000077e+00 3.104709999999999859e+00 1.769409999999999927e+00 6.754410000000000025e+00 1.574240000000000084e+00 4.447029999999999816e+00 1.851390000000000091e+00 1.539269999999999916e+00 4.460530000000000328e+00 6.749649999999999928e+00 1.529819999999999958e+00 9.000500000000000167e-01 2.477199999999999847e+00 1.507989999999999942e+00 9.046100000000000252e-01 7.221549999999999692e+00 -1.162999999999999971e-02 3.558980000000000032e+00 2.463699999999999779e+00 4.069999999999999833e-03 3.520550000000000068e+00 7.231659999999999755e+00 4.671990000000000087e+00 8.881999999999999895e-01 2.465590000000000170e+00 4.681400000000000006e+00 8.996300000000000407e-01 7.227299999999999613e+00 3.095559999999999867e+00 3.576859999999999928e+00 2.530889999999999862e+00 3.105919999999999792e+00 3.564389999999999947e+00 7.244080000000000297e+00 5.499999999999999681e-03 1.773979999999999890e+00 9.594250000000000611e+00 -1.518110000000000070e+00 4.505910000000000082e+00 4.867980000000000196e+00 -1.546869999999999967e+00 4.461599999999999788e+00 9.704959999999999809e+00 3.102040000000000131e+00 1.746159999999999934e+00 4.880429999999999602e+00 3.106910000000000061e+00 1.766299999999999981e+00 9.693619999999999237e+00 1.515109999999999957e+00 4.483799999999999564e+00 4.866019999999999790e+00 1.532569999999999988e+00 4.470900000000000318e+00 9.705189999999999984e+00
1.675620000000000109e+00 9.009200000000000541e-01 4.273839999999999861e+00 1.594649999999999901e+00 8.470199999999999951e-01 9.213969999999999771e+00 -1.030500000000000027e-01 3.723559999999999981e+00 4.309420000000000250e+00 9.709999999999999881e-03 3.759059999999999846e+00 9.151329999999999742e+00 4.464760000000000062e+00 7.642099999999999449e-01 4.374729999999999563e+00 4.610619999999999941e+00 8.908899999999999597e-01 9.192389999999999617e+00 3.085859999999999825e+00 3.676159999999999872e+00 4.416590000000000238e+00 2.985609999999999875e+00 3.567190000000000083e+00 9.327540000000000830e+00 -2.560000000000000209e-03 1.830810000000000048e+00 1.888980000000000103e+00 1.246799999999999992e-01 1.843709999999999960e+00 7.041570000000000107e+00 -1.543660000000000032e+00 4.452270000000000394e+00 1.799039999999999973e+00 -1.527160000000000073e+00 4.560430000000000206e+00 6.691989999999999661e+00 3.127800000000000136e+00 1.817110000000000003e+00 1.839509999999999978e+00 3.113700000000000134e+00 1.850899999999999990e+00 6.832480000000000331e+00 1.578249999999999931e+00 4.501000000000000334e+00 1.795500000000000096e+00 1.585960000000000036e+00 4.416710000000000136e+00 6.809190000000000076e+00 1.562130000000000019e+00 8.429999999999999716e-01 2.384459999999999802e+00 1.628500000000000059e+00 9.010399999999999521e-01 7.304669999999999774e+00 5.272000000000000297e-02 3.647019999999999929e+00 2.496570000000000178e+00 -1.121000000000000052e-01 3.664439999999999920e+00 7.245260000000000034e+00 4.568629999999999747e+00 9.027100000000000124e-01 2.426940000000000097e+00 4.791929999999999801e+00 9.312200000000000477e-01 7.264450000000000074e+00 3.181200000000000028e+00 3.671129999999999782e+00 2.507229999999999848e+00 3.065040000000000209e+00 3.589500000000000135e+00 7.416570000000000107e+00 1.034000000000000023e-02 1.880770000000000053e+00 9.762290000000000134e+00 -1.588410000000000100e+00 4.610310000000000130e+00 4.854759999999999742e+00 -1.525490000000000013e+00 4.512470000000000425e+00 9.760590000000000543e+00 3.125910000000000188e+00 1.797199999999999909e+00 5.008670000000000400e+00 3.077780000000000182e+00 1.709310000000000107e+00 9.746409999999999130e+00 1.422560000000000047e+00 4.474050000000000082e+00 5.003599999999999604e+00 1.498960000000000070e+00 4.538059999999999761e+00 9.748039999999999594e+00