6.285230000000000539e-01 -8.213900000000000368e-02 4.639900000000000274e-02 -5.480770000000000364e-01 3.287559999999999927e-01 -4.161540000000000239e-01 2.382980000000000098e-01 5.302609999999999824e-01 -2.073599999999999888e-01 -5.267199999999999660e-02 -6.697969999999999757e-01 -4.069530000000000092e-01 -4.459529999999999883e-01 -1.656650000000000067e-01 -1.201119999999999965e-01 7.841019999999999657e-01 3.936120000000000174e-01 -3.690439999999999832e-01 -3.855599999999999999e-02 -1.030099999999999939e-02 3.094210000000000016e-01 1.601660000000000028e-01 9.668300000000000505e-02 3.084100000000000036e-02 6.200499999999999762e-02 -3.611799999999999733e-02 4.321409999999999973e-01 6.390400000000000247e-02 2.321499999999999952e-02 -2.019630000000000036e-01 9.761200000000000432e-02 3.508100000000000107e-02 2.381900000000000128e-01 4.372559999999999780e-01 1.616960000000000064e-01 -4.438309999999999755e-01 -1.103920000000000040e-01 -1.193010000000000043e-01 4.009550000000000058e-01 6.949999999999999581e-03 -4.720340000000000091e-01 -4.408039999999999736e-01 -6.775899999999999979e-02 -1.323960000000000137e-01 3.242869999999999919e-01 -4.313779999999999837e-01 8.803099999999999814e-02 -4.553710000000000258e-01 -3.004140000000000144e-01 1.193000000000000033e-01 -1.177070000000000061e+00 1.034421000000000035e+00 -6.847459999999999658e-01 4.521959999999999869e-01 -7.603699999999999348e-02 -1.403919999999999890e-01 -1.067957999999999963e+00 6.061400000000000121e-02 1.322904999999999998e+00 4.453799999999999981e-01 2.740730000000000111e-01 7.175499999999999934e-02 -1.099445000000000006e+00 -1.135232000000000019e+00 -6.450590000000000490e-01 4.291980000000000239e-01 7.493600000000000261e-02 1.125509999999999983e-01 -6.948799999999999422e-02 3.785999999999999869e-03 1.004619999999999957e-01 4.169269999999999921e-01 -1.109590000000000021e-01 -8.696999999999999870e-03 5.655989999999999629e-01 -1.868152999999999953e+00 -9.591849999999999543e-01 1.125007000000000090e+00 3.404190000000000271e-01 1.810090000000000032e-01 -2.599759999999999849e-01 -1.005970000000000059e-01 1.868681999999999954e+00 9.552950000000000053e-01 -1.522300000000000042e-02 -4.795409999999999950e-01 -3.303440000000000265e-01 1.550459000000000032e+00 -1.090233000000000008e+00 1.125361000000000056e+00 -5.161219999999999697e-01 2.616069999999999784e-01 -2.313250000000000028e-01
-5.284300000000000108e-02 -7.770780000000000465e-01 -1.526405999999999930e+00 -7.758469999999999533e-01 1.222347000000000072e+00 -1.164155000000000051e+00 -5.523219999999999796e-01 -2.404930000000000123e-01 -9.803579999999999517e-01 -1.170981999999999967e+00 -9.535620000000000207e-01 -3.107530000000000014e-01 -6.985409999999999675e-01 1.315476000000000090e+00 -1.371901000000000037e+00 2.104175999999999824e+00 -2.491069999999999951e-01 -9.670100000000000362e-01 2.504675999999999902e+00 6.533660000000000023e-01 -6.737870000000000248e-01 1.370039999999999869e-01 -6.640380000000000171e-01 -7.147219999999999684e-01 1.016407999999999978e+00 3.233550000000000035e-01 5.176079999999999570e-01 -1.093433000000000099e+00 6.101050000000000084e-01 2.810409999999999853e-01 5.659619999999999651e-01 9.007709999999999884e-01 2.406379999999999963e+00 1.108513000000000082e+00 -1.972453000000000012e+00 4.568880000000000163e-01 -3.735399999999999832e-02 -8.264139999999999819e-01 2.030212000000000128e+00 3.013018000000000196e+00 5.265899999999999748e-02 -6.060480000000000311e-01 9.005440000000000111e-01 2.040200000000000069e-01 2.167610000000000092e-01 1.255060000000000064e+00 -6.163279999999999870e-01 4.208930000000000171e-01 1.697079999999999922e+00 -2.711099999999999968e-02 -1.082902999999999949e+00 -4.272869999999999724e-01 1.206570000000000004e-01 1.503411999999999971e+00 -6.131299999999999945e-02 -9.479100000000000026e-02 -1.655939000000000050e+00 -1.317879000000000023e+00 -6.295399999999999607e-02 1.485519999999999896e-01 -2.070448999999999984e+00 -4.201639999999999819e-01 -3.303559999999999830e-01 -8.186719999999999553e-01 5.073189999999999644e-01 7.489209999999999479e-01 -1.840948999999999947e+00 -1.147989999999999983e-01 -1.810592999999999897e+00 -1.828414999999999901e+00 1.323568999999999996e+00 2.370321999999999818e+00 -4.576819999999999777e-01 -9.777780000000000360e-01 1.249700999999999951e+00 -1.355312999999999990e+00 6.642230000000000079e-01 1.349885999999999919e+00 -1.213820000000000038e-01 1.387740000000000085e-01 -1.536145000000000094e+00 6.376260000000000261e-01 -1.213176999999999950e+00 1.353587000000000096e+00 -8.699580000000000091e-01 8.836509999999999643e-01 -1.188868000000000036e+00 1.912119999999999931e-01 -2.983979999999999966e-01 1.150868999999999920e+00 4.193450000000000233e-01 5.883509999999999573e-01 -2.850880000000000081e-01
1.791719999999999979e-01 5.224750000000000227e-01 -1.890220000000000011e+00 1.447380000000000055e-01 3.317330000000000001e-01 -5.846879999999999855e-01 5.162670000000000314e-01 6.146470000000000544e-01 -1.201900000000000052e-01 -4.793029999999999791e-01 7.003970000000000473e-01 -6.815809999999999924e-01 -9.141580000000000261e-01 -1.123809999999999948e-01 -1.274367000000000028e+00 1.788710000000000022e-01 1.011563999999999908e+00 5.713599999999999929e-02 -2.803809999999999913e-01 2.589910000000000267e-01 2.872620000000000173e-01 6.954179999999999806e-01 4.820889999999999898e-01 2.814269999999999827e-01 -3.097190000000000221e-01 -7.545450000000000212e-01 -1.402085000000000026e+00 1.503786999999999985e+00 -1.158480000000000065e-01 -6.152739999999999876e-01 -1.486810000000000076e-01 2.011159999999999892e-01 1.449352999999999891e+00 -8.445420000000000149e-01 -2.642730999999999941e+00 3.315500000000000114e-01 9.507309999999999928e-01 1.512679000000000107e+00 6.019300000000000345e-02 -8.442199999999999704e-01 -8.772429999999999950e-01 -1.286791999999999936e+00 2.640080000000000204e-01 -1.952260000000000106e-01 5.795960000000000001e-01 6.311320000000000263e-01 -2.037208000000000130e+00 -1.247184999999999988e+00 4.232799999999999757e-02 -7.853160000000000140e-01 4.003990000000000049e-01 1.801392000000000104e+00 9.546799999999999731e-02 1.146414000000000044e+00 4.190559999999999841e-01 7.257500000000000062e-02 -1.668093000000000048e+00 1.325857000000000063e+00 3.538027000000000033e+00 -2.055849999999999900e-01 5.830999999999999517e-01 2.972650000000000015e-01 -7.622860000000000191e-01 -3.817235000000000156e+00 5.469889999999999475e-01 8.619010000000000282e-01 -3.275580000000000158e-01 -1.554460000000000008e-01 -6.384530000000000483e-01 -4.222560000000000202e-01 1.327285000000000048e+00 -5.105260000000000353e-01 -1.309005999999999892e+00 -9.933899999999999952e-01 1.095963000000000021e+00 -3.106489999999999974e+00 -2.283196999999999921e+00 9.593859999999999610e-01 -1.907774000000000081e+00 4.301189999999999736e-01 -5.889969999999999928e-01 7.170910000000000339e-01 3.615101999999999816e+00 1.787774999999999892e+00 8.743349999999999733e-01 -7.983999999999999986e-01 1.116956999999999978e+00 2.861146999999999885e+00 -2.633446000000000176e+00 1.879242999999999997e+00 1.022891999999999912e+00 -1.174142999999999937e+00 1.181766000000000094e+00
2.433828999999999798e+00 -2.960925000000000029e+00 -2.369733000000000089e+00 -1.210161999999999960e+00 -1.219695999999999891e+00 -2.760059999999999736e-01 -8.512070000000000469e-01 4.157499999999999751e+00 -1.442520999999999942e+00 -2.083305000000000184e+00 -1.115799999999999903e+00 1.049450999999999912e+00 -3.958467000000000180e+00 -1.590467000000000075e+00 -1.543720999999999899e+00 -7.294960000000000333e-01 4.741690000000000071e-01 -1.881701999999999986e+00 3.015829999999999900e-01 -2.239230000000000109e-01 5.586839999999999584e-01 1.445332999999999979e+00 -8.410600000000000021e-02 -1.589899999999999924e-01 1.030882999999999994e+00 8.513420000000000432e-01 -1.384179999999999966e+00 -8.703000000000000666e-03 -2.406830000000000080e-01 4.469704000000000121e+00 -5.664099999999999691e-01 2.026883999999999908e+00 -2.054037000000000113e+00 -7.702290000000000525e-01 -8.819339999999999957e-01 2.349963999999999942e+00 5.696520000000000472e-01 -1.419421000000000044e+00 -1.937017999999999907e+00 -3.159859999999999891e-01 7.973400000000000487e-01 2.470991999999999855e+00 -1.172490000000000060e-01 -6.891040000000000498e-01 -5.801589999999999803e-01 2.595899999999999944e-02 1.358930000000000138e-01 1.632049999999999890e-01 -1.925812000000000079e+00 5.224560000000000315e-01 1.683321000000000067e+00 1.023440000000000044e-01 2.120299999999999963e-01 -4.368053999999999881e+00 3.345092000000000176e+00 -3.152864999999999807e+00 1.348985000000000101e+00 4.582740000000000147e-01 -1.533579999999999943e-01 -2.517507000000000161e+00 1.682013999999999898e+00 -1.055563000000000029e+00 1.513301000000000007e+00 4.176179999999999892e-01 -9.683640000000000025e-01 -2.008853000000000222e+00 -1.789085000000000036e+00 3.019188999999999901e+00 -8.795000000000000734e-03 1.079701999999999940e+00 1.290313000000000043e+00 -5.266550999999999760e+00 -1.405545999999999962e+00 2.317184999999999828e+00 7.499500000000000610e-02 -7.885499999999999732e-01 1.752869999999999984e-01 1.824869000000000074e+00 1.017357000000000067e+00 -1.948104999999999976e+00 2.290013000000000076e+00 2.880070000000000130e-01 2.226938999999999780e+00 2.287899999999999934e-01 1.320229000000000097e+00 9.108659999999999535e-01 2.507624999999999993e+00 1.866835000000000022e+00 -1.241913999999999962e+00 2.372395000000000032e+00 -8.645059999999999967e-01 -1.711650000000000116e-01 2.891531000000000073e+00
8.223350000000000382e-01 2.020329999999999904e-01 8.732400000000000162e-01 -9.698010000000000241e-01 -3.941180000000000239e-01 1.139140000000000014e-01 2.087353999999999932e+00 7.249520000000000408e-01 2.248221000000000025e+00 8.856060000000000043e-01 -2.887600000000000167e-01 5.764690000000000092e-01 -4.247960000000000069e-01 -1.034318000000000071e+00 2.538457999999999881e+00 1.223692999999999920e+00 -4.936150000000000260e-01 -1.272928999999999977e+00 -5.152290000000000481e-01 -1.120468999999999937e+00 1.465294000000000096e+00 6.805360000000000298e-01 7.667389999999999484e-01 -5.175729999999999498e-01 5.978599999999999887e-02 -2.805980000000000141e-01 2.772130000000000205e+00 7.614340000000000552e-01 3.831799999999999790e-02 -4.029490000000000016e-01 -4.940999999999999837e-01 -1.417459999999999942e+00 -9.027760000000000229e-01 2.875460000000000238e-01 -2.160788000000000153e+00 -1.563970000000000082e-01 -6.196409999999999973e-01 -1.759533999999999931e+00 1.950919999999999876e-01 -3.435849999999999738e-01 -3.393295999999999868e+00 -7.651099999999999568e-01 3.515889999999999849e-01 8.354399999999999604e-01 -1.573186999999999891e+00 -8.639499999999999957e-01 -9.576620000000000132e-01 3.453100000000000058e-01 9.265440000000000342e-01 2.583146000000000164e+00 -1.004334999999999978e+00 1.740604999999999958e+00 2.059362000000000137e+00 1.436820000000000042e-01 -5.851669999999999927e-01 -1.263069999999999915e+00 -1.341156000000000015e+00 8.288269999999999804e-01 2.368456999999999812e+00 -1.331420000000000103e-01 3.298809999999999798e-01 9.546599999999999531e-02 -2.310198999999999891e+00 -2.671889000000000181e+00 1.276016000000000039e+00 9.595730000000000093e-01 5.554259999999999753e-01 1.412493999999999916e+00 -6.424640000000000351e-01 5.747710000000000319e-01 4.532070000000000265e-01 4.343759999999999843e-01 2.107130000000000114e-01 -3.682099999999999818e-01 -3.844320999999999877e+00 -1.885666999999999982e+00 -7.486650000000000249e-01 7.812000000000000055e-01 -1.610699000000000103e+00 -4.965829999999999966e-01 7.041500000000000536e-02 -4.185510000000000064e-01 2.072252999999999901e+00 1.017800000000000038e+00 -9.479480000000000128e-01 2.079022999999999843e+00 1.007897000000000043e+00 1.239750000000000019e-01 1.718339999999999868e-01 -2.046867999999999910e+00 -9.959800000000000597e-02 -9.615939999999999488e-01 1.370336999999999916e+00
-4.987449999999999939e-01 1.268448999999999938e+00 -1.933558000000000110e+00 -6.187650000000000095e-01 -4.097200000000000147e-02 -8.188699999999999868e-01 3.843340000000000090e-01 -2.071129999999999916e-01 -4.955209999999999892e-01 3.606000000000000177e-02 -9.768850000000000033e-01 -3.385239999999999916e-01 -1.809611000000000081e+00 -8.923569999999999558e-01 2.020719000000000154e+00 -3.149580000000000157e-01 2.151209999999999845e+00 -3.195560000000000067e-01 1.500609999999999999e-01 -2.769909999999999872e-01 2.765110000000000068e-01 -1.021182000000000034e+00 -3.536420000000000119e-01 6.561639999999999695e-01 1.027147000000000032e+00 1.977430000000000021e-01 5.270890000000000297e-01 1.343540000000000012e-01 1.103859999999999980e-01 -4.464529999999999887e-01 -5.536200000000000149e-02 2.007579999999999920e-01 -1.136281000000000097e+00 4.763519999999999976e-01 -8.276930000000000121e-01 5.269499999999999879e-02 3.786559999999999926e-01 -1.455873999999999890e+00 -2.140370000000000050e-01 8.128600000000000270e-01 6.246000000000000441e-01 -9.716960000000000042e-01 -1.195468999999999893e+00 -6.942299999999999860e-02 -1.100406999999999913e+00 1.755711000000000022e+00 -8.854419999999999513e-01 -1.624506000000000006e+00 -9.443999999999999617e-02 1.705435000000000034e+00 -4.615489999999999871e-01 2.201079999999999981e-01 3.239509999999999890e-01 3.134290000000000131e-01 7.380100000000000549e-02 -1.152506999999999948e+00 6.739499999999999658e-02 -1.759878999999999971e+00 -4.919339999999999824e-01 9.608280000000000154e-01 7.787129999999999885e-01 3.680490000000000150e-01 -1.743224000000000107e+00 -7.141389999999999683e-01 6.421829999999999483e-01 -5.587600000000000205e-02 -1.224719999999999975e-01 3.230390000000000206e-01 -3.192679999999999962e-01 -4.243970000000000242e-01 8.823870000000000324e-01 -2.011739999999999917e-01 -3.483069999999999777e-01 2.035329999999999917e-01 1.540084999999999926e+00 -2.788705999999999907e+00 -2.042333000000000176e+00 6.551730000000000054e-01 -1.340389999999999915e-01 -6.267549999999999510e-01 2.231025999999999954e+00 2.354950000000000099e+00 7.462959999999999594e-01 8.812039999999999873e-01 -1.072170000000000067e-01 8.021110000000000184e-01 7.971589999999999510e-01 1.617650999999999950e+00 1.575376000000000110e+00 6.623000000000000415e-03 1.806929000000000007e+00 -1.825585000000000013e+00 1.194401000000000046e+00
1.846254999999999979e+00 -4.743240000000000234e-01 4.651120000000000254e-01 1.619810999999999890e+00 1.036405000000000021e+00 -1.001835000000000031e+00 5.351960000000000051e-01 1.321358999999999950e+00 7.999730000000000452e-01 9.513570000000000082e-01 -5.096370000000000067e-01 -3.622690000000000077e-01 -6.596849999999999659e-01 -1.617771000000000070e+00 1.285417000000000032e+00 2.367879999999999985e-01 -7.129320000000000102e-01 1.518197999999999936e+00 -8.322190000000000420e-01 1.099120000000000097e+00 5.437490000000000379e-01 -2.376584999999999948e+00 -7.099929999999999852e-01 -1.156247999999999942e+00 2.234623000000000026e+00 4.013519999999999865e-01 1.691055999999999893e+00 -2.040322000000000191e+00 1.417966000000000060e+00 1.104184999999999972e+00 1.605366999999999988e+00 -3.363601000000000063e+00 -1.658369999999999900e+00 -8.708339999999999970e-01 8.150960000000000427e-01 -4.376499999999999835e-01 -2.318792000000000186e+00 -1.936910000000000021e-01 1.125210999999999961e+00 -3.171704000000000079e+00 5.303999999999999687e-03 -1.485598999999999892e+00 -3.010860000000000203e-01 2.574562999999999935e+00 -1.619734000000000007e+00 9.242620000000000280e-01 -2.288082000000000171e+00 -1.831495000000000095e+00 -1.679394999999999971e+00 3.716861999999999888e+00 3.286950000000000149e-01 3.552989999999999871e+00 -8.669940000000000424e-01 1.010223000000000093e+00 -5.738419999999999632e-01 -2.995957000000000203e+00 -1.190785999999999900e+00 6.031609999999999472e-01 4.294330000000000092e-01 -1.153421999999999947e+00 1.614760000000000084e-01 1.435640999999999945e+00 5.247239999999999682e-01 6.449699999999999878e-02 1.086678999999999951e+00 3.430810000000000248e-01 -7.691059999999999564e-01 -1.596448000000000089e+00 -4.913239999999999830e-01 2.153319999999999956e-01 1.984640000000000015e-01 1.770420000000000049e-01 -2.547877000000000169e+00 1.789679999999999882e-01 5.166899999999999826e-01 -5.387250000000000094e-01 -2.942339999999999955e-01 2.230077999999999783e+00 -8.274789999999999646e-01 1.266953999999999914e+00 3.987390000000000101e-01 8.770240000000000258e-01 1.038567000000000018e+00 1.173926999999999943e+00 1.551131000000000038e+00 -9.024079999999999879e-01 -2.647137999999999991e+00 1.199643999999999933e+00 -1.497897999999999952e+00 1.393134000000000094e+00 1.328737999999999975e+00 1.237999999999999951e-03 -1.593364000000000003e+00
1.038572000000000051e+00 -6.235190000000000454e-01 -1.889780000000000071e-01 -6.600829999999999753e-01 3.114950000000000219e-01 -4.286860000000000115e-01 -8.356800000000000339e-02 1.179794000000000009e+00 -4.035500000000000198e-01 1.565390000000000115e-01 -6.712059999999999693e-01 -4.918819999999999859e-01 -9.872630000000000017e-01 -5.317939999999999889e-01 -3.078250000000000153e-01 7.749239999999999462e-01 2.783579999999999943e-01 -3.591360000000000108e-01 4.453399999999999720e-02 8.194999999999999507e-02 7.553260000000000529e-01 -8.493399999999999561e-02 8.015400000000000302e-02 -4.471600000000000019e-01 2.070800000000000071e-02 -6.989099999999999480e-02 1.102278000000000091e+00 -9.501400000000000123e-02 -6.737600000000000533e-02 -1.407579999999999942e-01 2.960610000000000186e-01 1.474199999999999955e-01 9.638160000000000061e-01 4.842130000000000045e-01 2.604759999999999853e-01 -2.972230000000000150e-01 -1.875570000000000015e-01 -4.291499999999999759e-01 1.070637000000000061e+00 -1.529969999999999941e-01 -4.743620000000000059e-01 -5.952910000000000146e-01 -2.485839999999999994e-01 2.690989999999999771e-01 9.763589999999999769e-01 -5.402970000000000272e-01 8.766699999999999493e-02 -2.509850000000000136e-01 -4.084119999999999973e-01 3.014390000000000125e-01 -1.801620999999999917e+00 1.264501000000000097e+00 -8.665599999999999969e-01 -4.549270000000000258e-01 -8.820999999999999674e-02 -4.549210000000000198e-01 -1.669370000000000021e+00 -7.921100000000000363e-02 1.570500999999999925e+00 -5.540220000000000145e-01 4.655239999999999934e-01 2.526660000000000017e-01 -1.743163000000000018e+00 -1.011825999999999892e+00 -6.334199999999999831e-01 -3.896789999999999976e-01 1.935600000000000098e-01 1.493140000000000023e-01 -7.895790000000000308e-01 -1.964600000000000027e-02 9.218099999999999905e-02 3.882849999999999913e-01 -4.329100000000000309e-02 -1.844230000000000036e-01 6.864160000000000261e-01 -1.148733999999999922e+00 -6.346669999999999812e-01 1.342425999999999897e+00 -5.793049999999999589e-01 -2.111000000000000099e-01 3.127800000000000025e-01 -6.403499999999999470e-02 1.252564999999999928e+00 1.652678000000000091e+00 9.851000000000000034e-02 4.913779999999999815e-01 3.621690000000000187e-01 1.255983999999999989e+00 -7.431200000000000028e-01 1.468684000000000101e+00 3.893340000000000134e-01 -2.109459999999999946e-01 2.319799999999999918e-01
1.674585999999999908e+00 -8.628040000000000154e-01 7.690199999999999814e-02 -1.224582000000000059e+00 1.018834999999999935e+00 -8.212190000000000323e-01 -2.271380000000000066e-01 1.744339000000000084e+00 -2.874110000000000276e-01 -1.216740000000000044e-01 -8.220579999999999554e-01 -8.841339999999999755e-01 -1.419585000000000097e+00 -8.296519999999999451e-01 -3.391870000000000163e-01 1.165974999999999984e+00 3.563350000000000128e-01 -4.157460000000000044e-01 2.949379999999999780e-01 4.963540000000000174e-01 -3.160060000000000091e-01 -1.551259999999999861e-01 2.219599999999999906e-01 1.683030000000000082e-01 1.597000000000000156e-02 -7.830900000000000361e-02 6.195559999999999956e-01 -1.065400000000000028e-02 -2.574750000000000094e-01 4.201190000000000202e-01 9.513299999999999534e-02 2.243030000000000024e-01 8.036389999999999922e-01 6.420749999999999513e-01 5.139150000000000107e-01 -2.731839999999999824e-01 1.688280000000000058e-01 -6.052760000000000362e-01 9.365040000000000031e-01 7.258599999999999774e-02 -5.906569999999999876e-01 -5.056519999999999904e-01 -5.281689999999999996e-01 2.466079999999999939e-01 8.664180000000000215e-01 -4.162190000000000056e-01 5.194809999999999706e-01 -2.356000000000000108e-02 -1.533889999999999976e-01 -7.192600000000000382e-02 -1.734299999999999953e+00 -1.495720000000000105e-01 -1.430259999999999865e-01 6.008639999999999537e-01 5.997099999999999653e-02 -1.353699999999999903e-01 -1.050896999999999970e+00 -6.737100000000000033e-02 9.154199999999999837e-02 7.683400000000000230e-01 -2.332400000000000098e-02 9.895099999999999729e-02 -1.579120999999999997e+00 -5.026000000000000086e-03 -4.474800000000000305e-02 2.552459999999999729e-01 2.884450000000000069e-01 5.449799999999999783e-02 -1.117299000000000042e+00 7.586900000000000588e-02 2.493400000000000130e-02 2.057580999999999882e+00 9.785900000000000154e-02 -3.668000000000000149e-01 8.443110000000000337e-01 -6.849060000000000148e-01 -4.175849999999999840e-01 5.604479999999999462e-01 -5.606050000000000200e-01 -6.043250000000000011e-01 -4.907619999999999760e-01 -2.334249999999999936e-01 2.330089999999999939e-01 1.191756000000000038e+00 -4.902399999999999813e-02 5.737280000000000157e-01 -4.037939999999999863e-01 5.613730000000000109e-01 -3.566219999999999946e-01 7.527760000000000007e-01 8.161840000000000206e-01 -2.321580000000000032e-01 -6.804909999999999570e-01
3.505949999999999900e-01 -1.677079999999999960e-01 2.564009999999999900e-01 -8.162730000000000263e-01 2.863859999999999739e-01 -3.204279999999999906e-01 -2.563999999999999960e-02 4.374460000000000015e-01 3.572279999999999900e-01 1.183329999999999937e-01 -8.908770000000000300e-01 -3.900980000000000003e-01 -3.252470000000000083e-01 -2.400259999999999894e-01 4.344310000000000116e-01 5.576060000000000461e-01 4.898279999999999856e-01 -3.546759999999999913e-01 2.328000000000000069e-01 1.347369999999999957e-01 9.975100000000000633e-02 6.952700000000000546e-02 1.169970000000000038e-01 -3.047050000000000036e-01 -8.607999999999999333e-03 5.158200000000000285e-02 7.644910000000000316e-01 1.456099999999999929e-02 8.658299999999999330e-02 -2.001509999999999956e-01 3.877720000000000056e-01 1.239080000000000042e-01 9.274010000000000309e-01 3.021670000000000189e-01 -2.511499999999999844e-02 -5.698309999999999764e-01 1.638239999999999974e-01 -4.020250000000000212e-01 7.708749999999999769e-01 8.648799999999999544e-02 -3.211760000000000170e-01 -5.801380000000000425e-01 -4.861880000000000090e-01 1.521849999999999870e-01 6.504940000000000166e-01 -2.385150000000000048e-01 3.193880000000000052e-01 -5.016570000000000196e-01 -2.186740000000000073e-01 1.633439999999999892e-01 -1.690873000000000070e+00 1.655690000000000106e+00 -7.912590000000000456e-01 6.972890000000000477e-01 -4.229600000000000026e-02 -1.850650000000000073e-01 -1.862251000000000101e+00 -1.760199999999999959e-02 1.817139000000000060e+00 6.283769999999999634e-01 1.653640000000000110e-01 1.646330000000000016e-01 -2.047134999999999927e+00 -1.738614000000000104e+00 -1.034496000000000082e+00 5.406670000000000087e-01 8.072799999999999421e-02 -1.089080000000000048e-01 -1.410711000000000048e+00 -1.226610000000000061e-01 -7.681799999999999740e-02 1.130136000000000029e+00 4.277899999999999758e-02 3.710900000000000309e-02 8.393490000000000117e-01 -1.495139999999999914e+00 -9.486940000000000373e-01 1.331522000000000094e+00 -2.972469999999999835e-01 -8.480000000000000124e-04 -7.861219999999999875e-01 -7.828899999999999748e-02 1.601480000000000015e+00 1.250518000000000018e+00 1.898799999999999932e-01 1.784969999999999890e-01 -5.667499999999999760e-01 1.366204999999999892e+00 -7.271710000000000118e-01 1.301028000000000073e+00 1.266750000000000098e-01 -2.410559999999999925e-01 -3.944320000000000048e-01
6.838469999999999827e-01 -2.295999999999999864e-03 1.547929999999999862e-01 -1.512469999999999926e-01 9.739399999999999447e-02 -6.073499999999999732e-02 2.859090000000000242e-01 5.573169999999999513e-01 -7.475600000000000300e-02 9.681800000000000128e-02 -1.513770000000000115e-01 -2.991289999999999782e-01 -4.086409999999999765e-01 -3.117639999999999856e-01 -8.856799999999999395e-02 2.692539999999999933e-01 1.331219999999999903e-01 -2.340319999999999900e-01 -7.780600000000000016e-02 7.305899999999999894e-02 -2.570790000000000020e-01 3.074899999999999856e-02 3.552600000000000202e-02 -1.977760000000000074e-01 -6.925699999999999912e-02 7.574200000000000377e-02 3.826350000000000029e-01 1.352019999999999889e-01 1.300199999999999967e-01 -2.187560000000000060e-01 5.174480000000000190e-01 2.707990000000000119e-01 4.319970000000000199e-01 -1.549280000000000102e-01 3.457000000000000003e-03 -1.612810000000000077e-01 -7.270999999999999686e-03 -6.090590000000000170e-01 5.327530000000000321e-01 -1.551619999999999944e-01 -9.376999999999999919e-03 -3.273309999999999831e-01 -5.384660000000000002e-01 3.552500000000000102e-01 7.189140000000000530e-01 1.310580000000000078e-01 1.426799999999999943e-02 -3.147380000000000178e-01 -3.102900000000000102e-02 1.688639999999999863e-01 -1.331860000000000044e+00 1.583215000000000039e+00 -9.177610000000000490e-01 3.486420000000000075e-01 8.870899999999999619e-02 -2.495999999999999885e-01 -1.143326000000000064e+00 -1.076509999999999967e-01 1.693117999999999901e+00 3.030530000000000168e-01 1.461400000000000025e-02 2.208900000000000030e-01 -1.119685999999999959e+00 -1.483497999999999983e+00 -9.835760000000000058e-01 3.851470000000000171e-01 2.755799999999999916e-02 -1.474479999999999957e-01 -1.271034999999999915e+00 -2.627300000000000121e-02 1.551210000000000089e-01 4.261380000000000168e-01 -5.613400000000000334e-02 -9.352599999999999802e-02 1.244817000000000062e+00 -1.428277000000000019e+00 -1.016780000000000017e+00 7.705210000000000115e-01 -5.886390000000000233e-01 -1.954369999999999996e-01 3.253099999999999742e-02 -1.703359999999999874e-01 1.439869999999999983e+00 4.981340000000000212e-01 -2.176929999999999976e-01 6.022899999999999920e-01 1.752940000000000054e-01 1.205225999999999908e+00 -8.525220000000000020e-01 7.689019999999999744e-01 6.027019999999999600e-01 -4.855849999999999889e-01 -7.418299999999999894e-02
6.006960000000000077e-01 -3.438000000000000084e-03 -4.638610000000000233e-01 -1.688520999999999939e+00 4.502619999999999956e-01 -7.462000000000000577e-02 7.590029999999999832e-01 4.103510000000000213e-01 8.309500000000000219e-02 -1.213349999999999929e+00 -2.441031999999999869e+00 -5.494700000000000278e-02 -1.330359999999999876e-01 1.642240000000000089e-01 -1.253011000000000097e+00 1.662671000000000010e+00 6.824989999999999668e-01 -2.279700000000000060e-01 -5.142320000000000224e-01 -8.023780000000000356e-01 -1.040005000000000068e+00 2.116953999999999780e+00 5.861399999999999944e-02 -1.643145000000000078e+00 -6.377499999999999836e-02 -3.776200000000000112e-01 -2.432560000000000000e-01 -1.041468999999999978e+00 3.636659999999999893e-01 -5.130040000000000155e-01 9.015050000000000008e-01 1.038008000000000042e+00 1.108757999999999910e+00 -1.778378000000000014e+00 2.247679999999999956e-01 1.110724999999999962e+00 -1.008409000000000111e+00 1.537209999999999965e-01 2.736520000000000064e-01 1.493057000000000079e+00 -8.352979999999999849e-01 -2.315499999999999850e-02 -1.414900000000000047e-01 5.583540000000000170e-01 1.612754000000000021e+00 -1.173410999999999982e+00 2.065154999999999852e+00 2.348149999999999959e-01 -1.339110000000000023e-01 1.248823000000000016e+00 3.144099999999999673e-02 -7.799300000000000677e-02 -4.231880000000000086e-01 6.459519999999999706e-01 -2.005679999999999963e-01 -9.971400000000000263e-01 -1.151091000000000086e+00 2.524449999999999861e+00 -6.831829999999999847e-01 9.734720000000000040e-01 1.825611000000000095e+00 -4.342739999999999934e-01 4.942429999999999879e-01 -1.720325000000000104e+00 -1.139455000000000107e+00 5.552949999999999831e-01 -1.793522999999999978e+00 -1.306745000000000045e+00 -7.306280000000000552e-01 8.961949999999999639e-01 4.255019999999999913e-01 7.460300000000000264e-02 -2.210300000000000042e-01 -4.842620000000000258e-01 -3.245179999999999731e-01 -1.171701000000000104e+00 -9.115029999999999522e-01 8.511229999999999629e-01 -1.779260000000000064e+00 -6.165899999999999714e-01 9.723500000000000199e-02 -6.175990000000000091e-01 2.253913999999999973e+00 -8.534850000000000492e-01 5.599840000000000373e-01 1.978005999999999931e+00 7.818159999999999554e-01 1.965297999999999989e+00 -1.032307000000000086e+00 -7.278350000000000097e-01 1.166557999999999984e+00 4.125440000000000218e-01 3.955549999999999899e-01