6.485856702000000418e+00 0.000000000000000000e+00 0.000000000000000000e+00 1.621607674000000054e+00 8.482522428999999420e+00 0.000000000000000000e+00 -5.585558000000000016e-03 1.208048999999999928e-02 8.610543956000000776e+00
6.562182542999999590e+00 0.000000000000000000e+00 0.000000000000000000e+00 -4.925779409999999636e+00 8.538583110999999448e+00 0.000000000000000000e+00 -1.132219999999999944e-04 9.464329999999999965e-04 8.216721764000000761e+00
6.612620970000000042e+00 0.000000000000000000e+00 0.000000000000000000e+00 -4.919213698000000079e+00 8.477059487000000004e+00 0.000000000000000000e+00 7.114437999999999838e-03 -1.658544799999999916e-02 8.293984163999999382e+00
6.319386671000000177e+00 0.000000000000000000e+00 0.000000000000000000e+00 1.612147478000000023e+00 8.276033087000000066e+00 0.000000000000000000e+00 -3.633825200000000144e-02 2.259035100000000157e-02 9.626371833000000322e+00
6.520941212000000320e+00 0.000000000000000000e+00 0.000000000000000000e+00 -4.937354498999999564e+00 8.512299424000000059e+00 0.000000000000000000e+00 -7.237658000000000112e-03 -6.723614000000000153e-03 8.290105111000000804e+00
6.491106345999999583e+00 0.000000000000000000e+00 0.000000000000000000e+00 1.639099167999999995e+00 8.494047501000000722e+00 0.000000000000000000e+00 -2.481436000000000058e-02 -8.672808000000000600e-03 8.683326376000000124e+00
6.620066038000000042e+00 0.000000000000000000e+00 0.000000000000000000e+00 -4.966992331000000149e+00 8.519478703000000763e+00 0.000000000000000000e+00 -5.358522999999999585e-03 -1.324059699999999978e-02 8.392915123999999949e+00
6.515324386999999717e+00 0.000000000000000000e+00 0.000000000000000000e+00 -4.895849289000000049e+00 8.464645320000000694e+00 0.000000000000000000e+00 -2.117810399999999968e-02 2.287430099999999966e-02 8.397589924000000039e+00
6.176719707000000170e+00 0.000000000000000000e+00 0.000000000000000000e+00 1.543690502000000020e+00 8.007272542999999132e+00 0.000000000000000000e+00 1.588639799999999949e-02 1.598353000000000057e-03 1.031273534500000011e+01
6.535156360000000220e+00 0.000000000000000000e+00 0.000000000000000000e+00 -4.930347417000000121e+00 8.547278511000000023e+00 0.000000000000000000e+00 -7.397507000000000214e-03 7.267178000000000006e-03 8.362032888999999969e+00
6.500107952999999661e+00 0.000000000000000000e+00 0.000000000000000000e+00 -4.869418814000000317e+00 8.453888965999999172e+00 0.000000000000000000e+00 6.872574000000000218e-03 -4.691581000000000223e-03 8.431648494999999244e+00
6.495968750000000291e+00 0.000000000000000000e+00 0.000000000000000000e+00 1.703375121999999964e+00 8.497068500999999330e+00 0.000000000000000000e+00 2.262480999999999867e-02 2.859357400000000007e-02 8.452946230000000227e+00
6.528518269000000096e+00 0.000000000000000000e+00 0.000000000000000000e+00 1.665253316000000039e+00 8.545250986999999299e+00 0.000000000000000000e+00 8.005231999999999279e-03 2.336505000000000006e-03 8.577799166000000142e+00
6.533050438000000071e+00 0.000000000000000000e+00 0.000000000000000000e+00 1.624030831000000008e+00 8.482927932999999143e+00 0.000000000000000000e+00 -6.343806999999999918e-03 -2.779948900000000014e-02 8.475384955999999192e+00
6.415748021999999828e+00 0.000000000000000000e+00 0.000000000000000000e+00 1.617124355000000069e+00 8.356354705999999410e+00 0.000000000000000000e+00 1.685977400000000098e-02 7.629799999999999950e-03 8.979942427999999310e+00
6.588931703000000084e+00 0.000000000000000000e+00 0.000000000000000000e+00 1.619333037999999947e+00 8.553094986999999705e+00 0.000000000000000000e+00 2.290590999999999808e-03 2.960739299999999921e-02 8.540902916000000289e+00
6.541163800999999722e+00 0.000000000000000000e+00 0.000000000000000000e+00 -4.894276368999999960e+00 8.516901329999999604e+00 0.000000000000000000e+00 7.107712999999999878e-03 3.951709999999999880e-04 8.311870897000000369e+00
6.586439855000000065e+00 0.000000000000000000e+00 0.000000000000000000e+00 -4.938641569999999703e+00 8.565480489000000475e+00 0.000000000000000000e+00 -3.516847999999999936e-03 -1.839909999999999940e-04 8.246383487999999318e+00
6.475205197000000190e+00 0.000000000000000000e+00 0.000000000000000000e+00 -4.889588877999999639e+00 8.422836330999999177e+00 0.000000000000000000e+00 -1.586030999999999899e-03 -4.497723000000000346e-03 8.239622956999999914e+00
6.508252468000000235e+00 0.000000000000000000e+00 0.000000000000000000e+00 -4.878533106999999980e+00 8.457389340000000644e+00 0.000000000000000000e+00 1.927366000000000018e-03 -3.971055000000000244e-03 8.444250080999999852e+00
6.180970182000000257e+00 0.000000000000000000e+00 0.000000000000000000e+00 1.580726577000000077e+00 7.979621257999999884e+00 0.000000000000000000e+00 -1.042118000000000081e-03 1.489027400000000022e-02 1.080781022000000036e+01
6.548722149999999687e+00 0.000000000000000000e+00 0.000000000000000000e+00 1.720431814999999975e+00 8.520790456000000290e+00 0.000000000000000000e+00 1.788538199999999828e-02 -2.519806000000000129e-02 8.486250930000000636e+00
6.522024169999999899e+00 0.000000000000000000e+00 0.000000000000000000e+00 -4.874896215999999782e+00 8.497016722999999772e+00 0.000000000000000000e+00 -2.872224000000000044e-03 -1.476451399999999942e-02 8.413657441999999875e+00
6.556120394999999768e+00 0.000000000000000000e+00 0.000000000000000000e+00 -4.829899535000000022e+00 8.489783833000000612e+00 0.000000000000000000e+00 1.060491499999999948e-02 5.541380000000000264e-03 8.266118543999999346e+00
6.552105934000000076e+00 0.000000000000000000e+00 0.000000000000000000e+00 -4.965720000000000134e+00 8.484199874999999835e+00 0.000000000000000000e+00 3.785774999999999904e-03 -5.737541999999999989e-03 8.273404902999999422e+00
6.372004182999999600e+00 0.000000000000000000e+00 0.000000000000000000e+00 1.597353213999999966e+00 8.237815956000000384e+00 0.000000000000000000e+00 -2.687213600000000133e-02 -1.863167799999999874e-02 9.290625866999999261e+00
6.579321936000000370e+00 0.000000000000000000e+00 0.000000000000000000e+00 1.598206326999999982e+00 8.537462367999999913e+00 0.000000000000000000e+00 1.570429599999999953e-02 -6.153312999999999665e-03 8.555493385000000117e+00
6.537222607000000352e+00 0.000000000000000000e+00 0.000000000000000000e+00 1.638993683000000035e+00 8.455946904999999347e+00 0.000000000000000000e+00 -5.205901999999999752e-02 -8.659504000000000160e-03 8.773651702000000441e+00
6.609939795999999923e+00 0.000000000000000000e+00 0.000000000000000000e+00 -5.037933458999999559e+00 8.582304079000000030e+00 0.000000000000000000e+00 8.656096999999999750e-03 -3.359522499999999939e-02 8.450814293000000532e+00
6.521130138000000187e+00 0.000000000000000000e+00 0.000000000000000000e+00 -4.924678308999999921e+00 8.501879953999999628e+00 0.000000000000000000e+00 2.036093599999999962e-02 -3.005001599999999884e-02 8.271795398000000077e+00
6.377293851000000124e+00 0.000000000000000000e+00 0.000000000000000000e+00 1.598525176000000103e+00 8.420299995000000592e+00 0.000000000000000000e+00 4.476233200000000190e-02 -1.227181160000000021e-01 9.416947411000000656e+00
6.549037185000000427e+00 0.000000000000000000e+00 0.000000000000000000e+00 -4.902676983000000099e+00 8.485023826000000824e+00 0.000000000000000000e+00 -3.216768000000000058e-03 8.265199999999999674e-04 8.352209822000000727e+00
6.478131771000000150e+00 0.000000000000000000e+00 0.000000000000000000e+00 1.648431672000000070e+00 8.487375885000000508e+00 0.000000000000000000e+00 -1.875680999999999920e-03 -1.869423999999999956e-03 8.430398775000000455e+00
6.529975023000000434e+00 0.000000000000000000e+00 0.000000000000000000e+00 1.645672057999999938e+00 8.591871553000000716e+00 0.000000000000000000e+00 8.846299999999999650e-04 1.783911000000000004e-03 8.635158995999999476e+00
6.557311301000000370e+00 0.000000000000000000e+00 0.000000000000000000e+00 -4.834317163999999778e+00 8.434106340999999674e+00 0.000000000000000000e+00 -1.710254500000000025e-02 3.579282400000000086e-02 8.394190406999999965e+00
6.117031390000000179e+00 0.000000000000000000e+00 0.000000000000000000e+00 1.527112967000000099e+00 7.910628403999999669e+00 0.000000000000000000e+00 1.033735499999999946e-02 -4.070283599999999918e-02 1.047594388799999976e+01
6.480282369000000209e+00 0.000000000000000000e+00 0.000000000000000000e+00 1.619992306000000104e+00 8.475161802000000577e+00 0.000000000000000000e+00 3.663408800000000215e-02 4.450275599999999748e-02 8.611113900999999515e+00
6.427822806000000000e+00 0.000000000000000000e+00 0.000000000000000000e+00 1.629438208000000055e+00 8.389140456999999884e+00 0.000000000000000000e+00 3.560094000000000192e-03 1.395191999999999960e-03 8.744503873999999399e+00
6.535031732000000204e+00 0.000000000000000000e+00 0.000000000000000000e+00 -4.910655502000000006e+00 8.479746249999999819e+00 0.000000000000000000e+00 5.925689999999999950e-03 1.075839699999999940e-02 8.327474207999999933e+00
6.523143812999999902e+00 0.000000000000000000e+00 0.000000000000000000e+00 -4.936352371999999988e+00 8.458494233999999778e+00 0.000000000000000000e+00 -5.663716000000000063e-03 6.360466000000000383e-03 8.370417142999999172e+00
6.568840423000000150e+00 0.000000000000000000e+00 0.000000000000000000e+00 -4.936295001999999599e+00 8.571409472999999224e+00 0.000000000000000000e+00 3.203479299999999891e-02 1.315490400000000025e-02 8.360004389000000202e+00
6.550921742999999964e+00 0.000000000000000000e+00 0.000000000000000000e+00 -4.949154368000000304e+00 8.484939531000000201e+00 0.000000000000000000e+00 -7.531513999999999570e-03 -2.058659000000000010e-03 8.218743412000000248e+00
6.494231366000000172e+00 0.000000000000000000e+00 0.000000000000000000e+00 -4.894368330999999905e+00 8.559788305999999736e+00 0.000000000000000000e+00 1.172887499999999972e-02 4.574886000000000230e-03 8.434894313999999227e+00
6.502062218999999921e+00 0.000000000000000000e+00 0.000000000000000000e+00 1.726368069000000061e+00 8.471291092999999606e+00 0.000000000000000000e+00 6.028554999999999678e-03 2.300159999999999878e-03 8.447615195999999216e+00
6.574784338999999811e+00 0.000000000000000000e+00 0.000000000000000000e+00 -4.924042876999999763e+00 8.593012806000000836e+00 0.000000000000000000e+00 8.182999999999999953e-04 2.579230000000000173e-04 8.341621694000000531e+00
6.509274783000000397e+00 0.000000000000000000e+00 0.000000000000000000e+00 -4.928622374999999778e+00 8.475480528000000291e+00 0.000000000000000000e+00 7.431632999999999989e-03 -1.425447600000000030e-02 8.332733585999999804e+00
6.545485709000000263e+00 0.000000000000000000e+00 0.000000000000000000e+00 -4.858679508999999896e+00 8.428188448000000221e+00 0.000000000000000000e+00 3.532818000000000069e-03 4.254828999999999903e-03 8.395094997999999364e+00
6.280389777999999978e+00 0.000000000000000000e+00 0.000000000000000000e+00 1.569535247999999994e+00 8.159201305999999931e+00 0.000000000000000000e+00 1.598440099999999878e-02 2.556084000000000134e-03 9.805642594000000045e+00
6.265295313000000199e+00 0.000000000000000000e+00 0.000000000000000000e+00 1.549306826000000026e+00 8.190693558999999624e+00 0.000000000000000000e+00 9.272478000000000664e-03 7.363342000000000151e-03 9.805851485999999895e+00
6.607018334000000159e+00 0.000000000000000000e+00 0.000000000000000000e+00 -4.966361766000000344e+00 8.507886373999999918e+00 0.000000000000000000e+00 -7.321089000000000242e-03 -7.551256999999999588e-03 8.405484582999999787e+00
