-4.363450023899999906e+02
-4.385064174799999819e+02
-4.415205584099999783e+02
-4.397466027699999813e+02
-4.351937647699999729e+02
-4.373659297099999890e+02
-4.359026938700000073e+02
-4.411449417599999947e+02
-4.374523512900000242e+02
-4.323984978199999887e+02
-4.389491923799999995e+02
-4.381291456499999981e+02
-4.363117910999999935e+02
-4.350083713500000044e+02
-4.316811510300000236e+02
-4.393104735800000071e+02
-4.312527190999999789e+02
-4.330862827000000266e+02
-4.385586546800000178e+02
-4.416709606599999915e+02
-4.370055004999999824e+02
-4.330768329599999902e+02
-4.331404402399999753e+02
-4.414903326500000276e+02
-4.415494809799999985e+02
-4.352326972399999931e+02
-4.326826033899999970e+02
-4.364686831299999881e+02
-4.320957313499999941e+02
-4.381020779899999980e+02
-4.365737446900000123e+02
-4.416527912799999740e+02
-4.376640179999999987e+02
-4.369515745200000083e+02
-4.366713669000000095e+02
-4.417327687800000149e+02
-4.417865693400000282e+02
-4.390890956700000061e+02
-4.372427994899999817e+02
-4.417155572899999925e+02
-4.360731402800000183e+02
-4.377912399900000082e+02
-4.411449417599999947e+02
-4.416783167899999967e+02
-4.411449417599999947e+02
-4.369864490300000170e+02
-4.416001774000000069e+02
-4.368242207000000121e+02
-4.417211505399999965e+02
-4.417661297700000205e+02
