8.622702178000000828e+00 0.000000000000000000e+00 0.000000000000000000e+00 4.357219611999999742e+00 7.444657823000000008e+00 0.000000000000000000e+00 4.431216786000000241e+00 2.342730507999999823e+00 6.916872840999999994e+00
8.315069696000000121e+00 0.000000000000000000e+00 0.000000000000000000e+00 4.046675205999999747e+00 7.240334561000000058e+00 0.000000000000000000e+00 4.188013145000000215e+00 2.491347832000000206e+00 6.804815758000000159e+00
8.391915663000000691e+00 0.000000000000000000e+00 0.000000000000000000e+00 4.216724436999999881e+00 7.323722987000000018e+00 0.000000000000000000e+00 4.227128361000000112e+00 2.524922430999999801e+00 6.856102230000000297e+00
8.495280724000000561e+00 0.000000000000000000e+00 0.000000000000000000e+00 4.311387000999999941e+00 7.342949820000000294e+00 0.000000000000000000e+00 4.336518669000000159e+00 2.406183180999999838e+00 7.065939426999999995e+00
8.602672267000000872e+00 0.000000000000000000e+00 0.000000000000000000e+00 4.275512841000000286e+00 7.428958173999999914e+00 0.000000000000000000e+00 4.161388571999999897e+00 2.409153577000000102e+00 6.946135135999999655e+00
8.415375991999999528e+00 0.000000000000000000e+00 0.000000000000000000e+00 4.255192919999999823e+00 7.413666144999999652e+00 0.000000000000000000e+00 4.237242849000000255e+00 2.570790109999999906e+00 7.044445546000000391e+00
8.274571292999999272e+00 0.000000000000000000e+00 0.000000000000000000e+00 4.111886423999999707e+00 7.129050222000000048e+00 0.000000000000000000e+00 4.188640100999999838e+00 2.420586968999999922e+00 6.762428109000000021e+00
8.399066775999999734e+00 0.000000000000000000e+00 0.000000000000000000e+00 4.166167005000000145e+00 7.289268077000000012e+00 0.000000000000000000e+00 4.129867372999999731e+00 2.492514025999999827e+00 6.920321562999999898e+00
8.619479640999999859e+00 0.000000000000000000e+00 0.000000000000000000e+00 4.368022726999999605e+00 7.380850899000000354e+00 0.000000000000000000e+00 4.314578678000000167e+00 2.355220250999999987e+00 6.955505538999999793e+00
8.575315485999999154e+00 0.000000000000000000e+00 0.000000000000000000e+00 4.268734506999999567e+00 7.408174240000000133e+00 0.000000000000000000e+00 4.195433556000000230e+00 2.355234182999999870e+00 6.968827935000000195e+00
8.611323174000000691e+00 0.000000000000000000e+00 0.000000000000000000e+00 4.217154457000000356e+00 7.442899360000000186e+00 0.000000000000000000e+00 4.258542335999999651e+00 2.577430056999999941e+00 7.060810492999999965e+00
8.672104521999999704e+00 0.000000000000000000e+00 0.000000000000000000e+00 4.398477673999999560e+00 7.379045382000000153e+00 0.000000000000000000e+00 4.333826645000000255e+00 2.349171350000000213e+00 6.909740613000000309e+00
8.597724423000000726e+00 0.000000000000000000e+00 0.000000000000000000e+00 4.454732048000000333e+00 7.460186421000000401e+00 0.000000000000000000e+00 4.291889509999999852e+00 2.383886544000000107e+00 6.992400950999999587e+00
8.424476332999999428e+00 0.000000000000000000e+00 0.000000000000000000e+00 4.151936313000000212e+00 7.380950713999999913e+00 0.000000000000000000e+00 4.157659726000000333e+00 2.547471058999999816e+00 6.977616049999999959e+00
8.431086814000000373e+00 0.000000000000000000e+00 0.000000000000000000e+00 4.243575314000000098e+00 7.407132746000000267e+00 0.000000000000000000e+00 4.212752912000000016e+00 2.442445306000000205e+00 7.087656059000000397e+00
8.553971552000000145e+00 0.000000000000000000e+00 0.000000000000000000e+00 4.212634373000000210e+00 7.422258947999999634e+00 0.000000000000000000e+00 4.290470004000000337e+00 2.499106750000000154e+00 6.866088740000000357e+00
8.648799757999999116e+00 0.000000000000000000e+00 0.000000000000000000e+00 4.237676721999999785e+00 7.387431776999999755e+00 0.000000000000000000e+00 4.270741075000000109e+00 2.291772785000000034e+00 6.870577776000000192e+00
8.440930648000000147e+00 0.000000000000000000e+00 0.000000000000000000e+00 4.254691597999999964e+00 7.323287671000000110e+00 0.000000000000000000e+00 4.238869925999999566e+00 2.358305076000000167e+00 7.045079999000000370e+00
8.422853888000000566e+00 0.000000000000000000e+00 0.000000000000000000e+00 4.220486063000000065e+00 7.263407402000000346e+00 0.000000000000000000e+00 4.138046440000000104e+00 2.375381884999999915e+00 6.895945526000000214e+00
8.469479535999999698e+00 0.000000000000000000e+00 0.000000000000000000e+00 4.216417464000000059e+00 7.322098588000000241e+00 0.000000000000000000e+00 4.212677768999999905e+00 2.404021251000000081e+00 7.013924549000000397e+00
8.479616246000000856e+00 0.000000000000000000e+00 0.000000000000000000e+00 4.262982945000000079e+00 7.304794775000000406e+00 0.000000000000000000e+00 4.158585256000000285e+00 2.370176939999999899e+00 6.906960954999999736e+00
8.427467315999999542e+00 0.000000000000000000e+00 0.000000000000000000e+00 4.214775215000000408e+00 7.345874117000000147e+00 0.000000000000000000e+00 4.309445580000000220e+00 2.501602758000000204e+00 6.881162430999999913e+00
8.492812617000000230e+00 0.000000000000000000e+00 0.000000000000000000e+00 4.229198934000000243e+00 7.506050517000000255e+00 0.000000000000000000e+00 4.439098629000000074e+00 2.578464419999999979e+00 6.979360407999999794e+00
8.421849008000000580e+00 0.000000000000000000e+00 0.000000000000000000e+00 4.255896479999999649e+00 7.332101201000000401e+00 0.000000000000000000e+00 4.250279023000000045e+00 2.509175834000000105e+00 6.873377933999999634e+00
8.619655074000000639e+00 0.000000000000000000e+00 0.000000000000000000e+00 4.245708207999999928e+00 7.413744051000000113e+00 0.000000000000000000e+00 4.259455221999999708e+00 2.546153388000000017e+00 7.066459929999999723e+00
8.434867540999999136e+00 0.000000000000000000e+00 0.000000000000000000e+00 4.213319752000000307e+00 7.392626506000000042e+00 0.000000000000000000e+00 4.306915152000000191e+00 2.575876560999999842e+00 6.882509270999999984e+00
8.579453205000000082e+00 0.000000000000000000e+00 0.000000000000000000e+00 4.216648786999999565e+00 7.307996723999999666e+00 0.000000000000000000e+00 4.260828009999999999e+00 2.412479756999999836e+00 6.965300119000000123e+00
8.562030498000000378e+00 0.000000000000000000e+00 0.000000000000000000e+00 4.243915520999999913e+00 7.335026338999999673e+00 0.000000000000000000e+00 4.194558241000000187e+00 2.324183255999999975e+00 6.941736404000000249e+00
8.533406591000000319e+00 0.000000000000000000e+00 0.000000000000000000e+00 4.196706144000000194e+00 7.407142540999999802e+00 0.000000000000000000e+00 4.341976395999999738e+00 2.614490199000000015e+00 6.970421296999999683e+00
8.477498462999999873e+00 0.000000000000000000e+00 0.000000000000000000e+00 4.284250894000000365e+00 7.374528474999999972e+00 0.000000000000000000e+00 4.304346060000000307e+00 2.444278628000000175e+00 7.037071753000000207e+00
8.416119147999999939e+00 0.000000000000000000e+00 0.000000000000000000e+00 4.205336167999999653e+00 7.353256522999999767e+00 0.000000000000000000e+00 4.219277414999999642e+00 2.543356134999999796e+00 6.886668223000000033e+00
8.515352594999999525e+00 0.000000000000000000e+00 0.000000000000000000e+00 4.246841146000000400e+00 7.431566821999999739e+00 0.000000000000000000e+00 4.230271741000000141e+00 2.602412719000000152e+00 6.860824542999999665e+00
8.457696628000000771e+00 0.000000000000000000e+00 0.000000000000000000e+00 4.286479951999999649e+00 7.329564204000000416e+00 0.000000000000000000e+00 4.183984190000000325e+00 2.291592411999999968e+00 6.872164318000000272e+00
8.336144841999999500e+00 0.000000000000000000e+00 0.000000000000000000e+00 4.211030968000000207e+00 7.142596194000000231e+00 0.000000000000000000e+00 4.219769139000000280e+00 2.395228571000000084e+00 6.809019029999999972e+00
8.512940530999999922e+00 0.000000000000000000e+00 0.000000000000000000e+00 4.273507367999999751e+00 7.446653578000000273e+00 0.000000000000000000e+00 4.372005408999999787e+00 2.554960497999999802e+00 6.949269206000000310e+00
8.377086903000000362e+00 0.000000000000000000e+00 0.000000000000000000e+00 4.098305406999999789e+00 7.289677331000000038e+00 0.000000000000000000e+00 4.228345571000000191e+00 2.503581334000000158e+00 6.858606640999999726e+00
8.624853345000000004e+00 0.000000000000000000e+00 0.000000000000000000e+00 4.296947863999999839e+00 7.384162962999999635e+00 0.000000000000000000e+00 4.156720813999999820e+00 2.392002286999999949e+00 7.024335746000000213e+00
8.596063721000000157e+00 0.000000000000000000e+00 0.000000000000000000e+00 4.246187069000000314e+00 7.365888295999999613e+00 0.000000000000000000e+00 4.174328960000000421e+00 2.396877544000000082e+00 6.920385060000000088e+00
8.444414141999999401e+00 0.000000000000000000e+00 0.000000000000000000e+00 4.281619388000000193e+00 7.325501961999999700e+00 0.000000000000000000e+00 4.248309051999999753e+00 2.351406292000000064e+00 7.030085496999999961e+00
8.438918348999999708e+00 0.000000000000000000e+00 0.000000000000000000e+00 4.220914588000000300e+00 7.246683091000000410e+00 0.000000000000000000e+00 4.172239687000000252e+00 2.352003691000000174e+00 6.884244994000000339e+00
8.507908134999999206e+00 0.000000000000000000e+00 0.000000000000000000e+00 4.239861839999999660e+00 7.409373030000000249e+00 0.000000000000000000e+00 4.177314005999999580e+00 2.565567161000000151e+00 7.059239694999999593e+00
8.521611439999999149e+00 0.000000000000000000e+00 0.000000000000000000e+00 4.224645395999999664e+00 7.380637555999999933e+00 0.000000000000000000e+00 4.196401059000000267e+00 2.447665938000000097e+00 6.962861618999999891e+00
8.420585768000000471e+00 0.000000000000000000e+00 0.000000000000000000e+00 4.303388079000000310e+00 7.404169858000000382e+00 0.000000000000000000e+00 4.196493045999999616e+00 2.549267488999999998e+00 7.084121786999999948e+00
8.457184883000000042e+00 0.000000000000000000e+00 0.000000000000000000e+00 4.213630975000000056e+00 7.310304820999999897e+00 0.000000000000000000e+00 4.156708504000000026e+00 2.408326581999999938e+00 6.922581366000000180e+00
8.507588279000000142e+00 0.000000000000000000e+00 0.000000000000000000e+00 4.369079186999999642e+00 7.430941559999999946e+00 0.000000000000000000e+00 4.225318228999999981e+00 2.479490290999999846e+00 7.013854144999999818e+00
8.279456872000000800e+00 0.000000000000000000e+00 0.000000000000000000e+00 4.180960740999999814e+00 7.097765192999999861e+00 0.000000000000000000e+00 4.182123105999999702e+00 2.375171662000000072e+00 6.760107802000000277e+00
8.452808385000000868e+00 0.000000000000000000e+00 0.000000000000000000e+00 4.245155126000000223e+00 7.424626903000000055e+00 0.000000000000000000e+00 4.227005875999999773e+00 2.593692395999999789e+00 6.938294461999999996e+00
8.592086222000000717e+00 0.000000000000000000e+00 0.000000000000000000e+00 4.238389846999999655e+00 7.406470402000000064e+00 0.000000000000000000e+00 4.287740211000000023e+00 2.558671975999999848e+00 7.033890479000000084e+00
8.538180707000000425e+00 0.000000000000000000e+00 0.000000000000000000e+00 4.244670713999999734e+00 7.504214660999999786e+00 0.000000000000000000e+00 4.452565511000000420e+00 2.533666950000000195e+00 6.996592442999999939e+00
8.566308379000000528e+00 0.000000000000000000e+00 0.000000000000000000e+00 4.169520997000000229e+00 7.408724409000000399e+00 0.000000000000000000e+00 4.240223763000000368e+00 2.336995260000000130e+00 6.946270843999999833e+00
