1.310056999999999938e+01 2.543530000000000069e+00 6.872259999999999813e+00 5.884369999999999656e+00 8.207300000000000040e+00 2.367620000000000058e+00 3.089069999999999983e+00 1.609799999999999898e+00 4.670069999999999943e+00 1.003778999999999932e+01 2.453800000000000203e+00 7.913000000000000589e-02 1.133317000000000085e+01 3.309619999999999784e+00 2.364619999999999944e+00 4.495560000000000223e+00 3.927639999999999798e+00 4.480100000000000193e+00 1.154186999999999941e+01 5.084290000000000198e+00 1.139999999999999954e-03 1.303757000000000055e+01 5.706929999999999836e+00 2.439480000000000093e+00 6.179310000000000080e+00 6.573959999999999582e+00 4.527449999999999974e+00 1.174596999999999980e+01 9.746159999999999712e+00 6.891980000000000217e+00 8.806779999999999831e+00 8.162319999999999354e+00 2.443480000000000096e+00 5.729099999999999859e+00 1.690120000000000067e+00 4.574799999999999756e+00 4.307590000000000252e+00 2.474559999999999871e+00 4.397999999999999826e-02 5.809619999999999784e+00 3.256679999999999797e+00 2.331739999999999924e+00 7.323859999999999815e+00 4.298160000000000203e+00 4.428309999999999746e+00 5.676249999999999574e+00 5.032659999999999911e+00 1.371999999999999956e-02 7.198349999999999582e+00 5.779860000000000220e+00 2.299370000000000136e+00 8.850329999999999586e+00 6.409539999999999793e+00 4.679289999999999949e+00 1.015926999999999936e+01 2.336450000000000138e+00 6.798829999999999707e+00 1.157371999999999979e+01 8.226160000000000139e+00 2.372749999999999915e+00 1.304987000000000030e+01 8.951420000000000599e+00 4.661590000000000344e+00 6.945890000000000342e+00 2.546180000000000110e+00 2.673999999999999988e-02 8.631700000000000372e+00 3.192110000000000003e+00 2.217220000000000191e+00 1.016177000000000064e+01 4.014120000000000132e+00 4.690590000000000259e+00 8.762710000000000221e+00 5.073470000000000368e+00 1.732299999999999951e-01 1.014127000000000045e+01 5.815599999999999881e+00 2.339739999999999931e+00 1.161566999999999972e+01 6.548429999999999751e+00 4.644400000000000084e+00 2.578129999999999811e+00 1.629340000000000011e+00 1.055120000000000058e+00 4.567549999999999777e+00 2.358280000000000154e+00 3.395220000000000127e+00 5.828870000000000218e+00 3.428310000000000191e+00 5.799179999999999779e+00 4.253149999999999764e+00 4.014170000000000016e+00 1.123790000000000067e+00 5.830289999999999750e+00 4.948050000000000281e+00 3.548360000000000181e+00 7.348539999999999850e+00 5.768250000000000099e+00 5.652199999999999669e+00 5.869349999999999845e+00 6.741830000000000211e+00 1.091690000000000049e+00 7.390150000000000219e+00 7.475299999999999834e+00 3.428230000000000111e+00 8.823900000000000077e+00 8.224729999999999208e+00 5.726869999999999905e+00 5.689510000000000289e+00 1.550990000000000091e+00 1.115939999999999932e+00 7.411940000000000417e+00 2.360609999999999875e+00 3.331780000000000186e+00 8.688200000000000145e+00 3.030489999999999906e+00 5.799319999999999808e+00 7.171640000000000015e+00 4.103970000000000340e+00 1.092789999999999928e+00 8.772520000000000095e+00 4.783170000000000144e+00 3.526990000000000069e+00 1.019816999999999929e+01 5.587419999999999831e+00 5.831979999999999720e+00 8.750230000000000175e+00 6.495930000000000426e+00 1.353069999999999995e+00 1.017637000000000036e+01 7.367820000000000036e+00 3.605269999999999975e+00 1.171077000000000012e+01 8.049879999999999924e+00 5.906030000000000335e+00 8.514319999999999666e+00 1.833090000000000108e+00 1.054899999999999949e+00 1.022076999999999991e+01 2.336759999999999948e+00 3.551029999999999909e+00 1.158686999999999934e+01 3.193989999999999885e+00 5.671400000000000219e+00 9.972939999999999472e+00 4.047579999999999956e+00 9.258399999999999963e-01 1.155507000000000062e+01 4.897020000000000373e+00 3.432209999999999983e+00 1.141787000000000063e+01 6.663100000000000023e+00 1.085869999999999891e+00 1.308647000000000027e+01 7.282960000000000100e+00 3.494000000000000217e+00 1.442247000000000057e+01 7.971420000000000172e+00 5.799820000000000420e+00
1.233392000000000088e+01 7.229049999999999976e+00 9.570000000000000381e-03 5.508219999999999672e+00 8.085119999999999862e+00 2.312170000000000059e+00 2.763310000000000155e+00 1.655340000000000034e+00 4.466239999999999988e+00 5.589710000000000178e+00 4.782169999999999810e+00 6.796660000000000146e+00 2.793480000000000185e+00 3.192120000000000068e+00 2.181059999999999999e+00 1.238354999999999961e+01 4.035350000000000215e+00 4.518189999999999706e+00 2.762000000000000011e+00 4.826399999999999579e+00 1.750000000000000167e-02 4.116489999999999760e+00 5.650459999999999816e+00 2.281950000000000145e+00 5.578870000000000218e+00 6.521099999999999675e+00 4.550399999999999778e+00 6.790639999999999787e+00 7.185679999999999623e+00 1.730999999999999900e-02 4.251719999999999722e+00 8.409799999999999498e-01 2.287520000000000220e+00 9.618029999999999191e+00 8.884140000000000370e+00 4.528749999999999609e+00 8.377230000000000842e+00 4.832729999999999748e+00 6.751430000000000042e+00 5.605109999999999815e+00 3.225569999999999826e+00 2.232429999999999914e+00 6.880550000000000388e+00 4.093210000000000015e+00 4.550849999999999618e+00 5.383890000000000065e+00 4.844739999999999824e+00 4.121999999999999970e-02 6.819209999999999994e+00 5.733430000000000248e+00 2.338350000000000151e+00 8.245150000000000645e+00 6.506549999999999834e+00 4.535420000000000229e+00 9.758779999999999788e+00 2.555219999999999825e+00 6.803110000000000213e+00 1.103694999999999915e+01 8.004479999999999151e+00 2.309610000000000163e+00 1.236764999999999937e+01 8.886929999999999552e+00 4.588890000000000136e+00 6.814540000000000042e+00 2.473609999999999864e+00 2.850000000000000103e-02 8.317959999999999354e+00 3.197779999999999845e+00 2.291409999999999947e+00 9.676830000000000709e+00 4.149359999999999715e+00 4.493140000000000356e+00 8.176510000000000389e+00 4.912200000000000344e+00 3.225000000000000089e-02 9.616289999999999338e+00 5.701579999999999870e+00 2.287659999999999805e+00 1.107765000000000022e+01 6.462920000000000442e+00 4.494279999999999831e+00 2.778360000000000163e+00 1.617909999999999959e+00 1.098759999999999959e+00 4.103259999999999685e+00 2.467859999999999943e+00 3.349740000000000162e+00 5.467030000000000278e+00 3.393359999999999932e+00 5.627320000000000100e+00 4.149189999999999934e+00 4.031570000000000320e+00 1.143059999999999965e+00 5.520940000000000403e+00 4.878669999999999618e+00 3.451729999999999965e+00 6.852289999999999992e+00 5.722579999999999778e+00 5.725410000000000110e+00 5.494740000000000180e+00 6.466219999999999857e+00 1.173610000000000042e+00 6.881509999999999572e+00 7.324950000000000294e+00 3.381299999999999972e+00 8.230610000000000426e+00 8.143309999999999604e+00 5.680410000000000181e+00 5.531480000000000175e+00 1.579890000000000017e+00 1.199950000000000072e+00 6.926829999999999821e+00 2.442359999999999864e+00 3.462099999999999955e+00 8.322070000000000078e+00 3.308840000000000003e+00 5.631759999999999877e+00 6.825429999999999886e+00 4.030439999999999579e+00 1.056270000000000042e+00 8.280519999999999214e+00 4.925539999999999807e+00 3.369240000000000013e+00 9.745200000000000529e+00 5.699910000000000032e+00 5.608839999999999826e+00 8.273039999999999949e+00 6.424549999999999983e+00 1.155909999999999993e+00 9.622469999999999857e+00 7.338189999999999991e+00 3.363630000000000120e+00 1.096574999999999989e+01 8.086220000000000852e+00 5.734969999999999679e+00 8.280810000000000670e+00 1.625159999999999938e+00 1.000620000000000065e+00 9.667339999999999378e+00 2.472370000000000179e+00 3.424739999999999895e+00 1.105044999999999966e+01 3.275100000000000122e+00 5.629900000000000126e+00 9.598940000000000694e+00 3.952100000000000168e+00 1.112440000000000095e+00 1.113085000000000058e+01 4.883180000000000298e+00 3.445009999999999906e+00 1.110214999999999996e+01 6.382929999999999993e+00 1.123539999999999983e+00 1.240034999999999954e+01 7.240709999999999980e+00 3.505580000000000140e+00 1.366714999999999947e+01 7.984099999999999753e+00 5.719030000000000058e+00
8.484159999999999258e+00 9.756040000000000489e+00 6.803189999999999849e+00 1.395454999999999934e+01 8.054669999999999774e+00 2.309870000000000090e+00 1.534187999999999974e+01 8.926940000000000097e+00 4.723840000000000039e+00 1.441599999999999993e+00 2.323129999999999917e+00 6.555999999999999328e-02 1.103808000000000078e+01 3.059480000000000199e+00 2.298960000000000115e+00 4.237479999999999691e+00 4.025019999999999598e+00 4.468460000000000321e+00 1.537149999999999928e+01 7.428580000000000183e+00 6.834629999999999761e+00 4.199860000000000149e+00 5.636999999999999567e+00 2.282789999999999875e+00 5.759640000000000093e+00 6.644180000000000419e+00 4.447350000000000136e+00 7.085090000000000110e+00 2.559250000000000025e+00 6.736729999999999663e+00 8.429230000000000445e+00 8.103799999999999670e+00 2.381260000000000154e+00 9.820119999999999294e+00 8.896580000000000155e+00 4.779239999999999711e+00 4.222409999999999997e+00 2.340050000000000185e+00 5.621000000000000302e-02 5.718359999999999665e+00 3.096280000000000143e+00 2.282979999999999787e+00 6.917580000000000062e+00 3.920809999999999906e+00 4.589780000000000193e+00 5.541419999999999568e+00 4.824589999999999712e+00 1.713200000000000001e-01 7.000960000000000072e+00 5.683639999999999581e+00 2.143619999999999859e+00 8.302929999999999922e+00 6.532879999999999576e+00 4.531270000000000131e+00 9.848739999999999384e+00 2.550870000000000193e+00 6.837119999999999642e+00 7.061580000000000190e+00 9.407699999999999951e-01 2.367490000000000094e+00 8.479649999999999466e+00 1.810459999999999958e+00 4.535569999999999879e+00 6.804299999999999571e+00 2.256429999999999936e+00 9.342999999999999916e-02 8.436870000000000758e+00 3.244000000000000217e+00 2.309489999999999821e+00 9.686959999999999127e+00 4.103139999999999787e+00 4.533249999999999780e+00 8.342679999999999652e+00 4.914349999999999774e+00 6.833999999999999797e-02 9.808189999999999742e+00 5.775640000000000107e+00 2.265559999999999796e+00 1.121598000000000006e+01 6.718429999999999680e+00 4.544839999999999769e+00 2.809600000000000097e+00 1.684779999999999944e+00 1.200620000000000021e+00 4.187689999999999912e+00 2.360939999999999817e+00 3.483140000000000125e+00 5.529659999999999798e+00 3.337260000000000115e+00 5.726040000000000241e+00 4.242609999999999992e+00 4.061589999999999812e+00 1.096330000000000027e+00 5.620860000000000412e+00 5.037829999999999586e+00 3.472020000000000106e+00 6.793429999999999858e+00 5.752229999999999954e+00 5.712959999999999816e+00 5.682019999999999627e+00 6.512330000000000396e+00 1.156039999999999957e+00 7.011300000000000310e+00 7.448249999999999815e+00 3.488329999999999931e+00 8.390100000000000335e+00 8.182330000000000325e+00 5.729549999999999699e+00 5.685100000000000264e+00 1.536999999999999922e+00 1.151319999999999899e+00 7.099140000000000228e+00 2.418169999999999931e+00 3.380660000000000220e+00 8.265969999999999374e+00 3.499740000000000073e+00 5.765939999999999621e+00 7.043459999999999610e+00 4.010880000000000223e+00 9.684899999999999620e-01 8.429800000000000182e+00 4.983929999999999971e+00 3.352640000000000065e+00 9.893140000000000711e+00 5.909849999999999604e+00 5.737420000000000186e+00 8.373730000000000118e+00 6.588720000000000354e+00 9.738099999999999534e-01 9.896259999999999835e+00 7.404539999999999900e+00 3.540570000000000217e+00 1.148277999999999999e+01 8.199180000000000135e+00 5.541479999999999961e+00 8.405459999999999710e+00 1.498459999999999903e+00 1.041520000000000001e+00 9.866160000000000707e+00 2.490069999999999784e+00 3.474899999999999878e+00 1.117367999999999917e+01 3.433870000000000200e+00 5.656749999999999723e+00 9.859349999999999170e+00 4.186289999999999623e+00 1.156700000000000061e+00 1.128138000000000041e+01 5.089470000000000383e+00 3.476360000000000117e+00 1.122118000000000038e+01 6.734189999999999898e+00 1.164730000000000043e+00 1.273237999999999914e+01 7.329860000000000042e+00 3.504840000000000177e+00 1.396268000000000065e+01 8.136559999999999349e+00 5.744720000000000049e+00
8.727359999999999118e+00 9.679420000000000357e+00 7.028030000000000221e+00 1.425805000000000078e+01 8.100659999999999528e+00 2.506289999999999907e+00 2.925879999999999814e+00 1.700159999999999894e+00 4.550019999999999953e+00 1.422129999999999894e+00 2.282729999999999926e+00 1.572099999999999886e-01 2.892929999999999779e+00 3.132919999999999927e+00 2.361219999999999875e+00 1.284695999999999927e+01 4.154819999999999958e+00 4.642990000000000173e+00 1.558216000000000001e+01 7.302859999999999907e+00 6.980649999999999800e+00 4.382799999999999585e+00 5.766149999999999665e+00 2.372339999999999893e+00 1.429635999999999996e+01 6.626430000000000042e+00 4.637699999999999712e+00 7.275479999999999947e+00 7.105509999999999771e+00 1.267000000000000071e-02 8.595800000000000551e+00 8.075680000000000192e+00 2.181669999999999998e+00 5.612239999999999895e+00 1.770780000000000021e+00 4.667449999999999655e+00 8.795389999999999375e+00 4.811630000000000074e+00 6.982380000000000031e+00 5.608749999999999680e+00 3.092649999999999899e+00 2.296940000000000204e+00 7.270959999999999646e+00 4.126500000000000057e+00 4.756310000000000038e+00 9.978659999999999641e+00 7.313749999999999751e+00 7.020839999999999748e+00 7.149779999999999802e+00 5.577270000000000394e+00 2.450270000000000170e+00 8.623300000000000409e+00 6.557030000000000136e+00 4.681400000000000006e+00 5.761160000000000281e+00 3.422999999999999654e-02 8.933000000000000662e-02 1.141432000000000002e+01 8.174450000000000216e+00 2.444409999999999972e+00 8.465070000000000761e+00 1.696960000000000024e+00 4.900999999999999801e+00 7.147300000000000431e+00 2.595289999999999875e+00 2.812999999999999876e-02 8.612199999999999633e+00 3.264419999999999877e+00 2.401089999999999947e+00 9.895720000000000738e+00 3.971919999999999895e+00 4.666380000000000194e+00 8.581030000000000157e+00 4.945149999999999935e+00 1.511200000000000043e-01 1.007116000000000078e+01 5.679429999999999978e+00 2.304300000000000015e+00 1.150235999999999947e+01 6.527309999999999945e+00 4.674380000000000202e+00 2.909199999999999786e+00 1.614000000000000101e+00 1.133690000000000087e+00 4.266790000000000305e+00 2.535359999999999836e+00 3.530990000000000073e+00 5.609560000000000102e+00 3.367269999999999985e+00 5.878239999999999910e+00 4.487470000000000070e+00 3.946229999999999905e+00 1.148770000000000069e+00 5.633200000000000429e+00 4.962900000000000311e+00 3.635559999999999903e+00 7.100579999999999892e+00 5.706970000000000098e+00 5.821900000000000297e+00 5.839349999999999596e+00 6.503680000000000128e+00 1.259730000000000016e+00 7.065349999999999575e+00 7.392179999999999751e+00 3.483280000000000154e+00 8.602380000000000138e+00 8.052989999999999426e+00 5.812359999999999971e+00 5.764569999999999972e+00 1.513230000000000075e+00 1.144030000000000102e+00 7.223300000000000054e+00 2.528620000000000090e+00 3.613579999999999792e+00 8.624499999999999389e+00 3.305689999999999795e+00 6.000429999999999708e+00 7.191849999999999632e+00 4.038719999999999644e+00 1.311120000000000063e+00 8.593939999999999912e+00 4.804590000000000138e+00 3.412749999999999950e+00 1.007415999999999912e+01 5.698159999999999670e+00 5.777540000000000120e+00 8.528719999999999857e+00 6.541319999999999801e+00 1.234720000000000040e+00 9.978160000000000807e+00 7.372119999999999784e+00 3.444030000000000147e+00 1.122456000000000031e+01 8.198499999999999233e+00 5.914860000000000007e+00 8.471880000000000521e+00 1.662400000000000100e+00 1.191759999999999931e+00 1.000496000000000052e+01 2.241760000000000197e+00 3.621500000000000163e+00 1.151895999999999987e+01 3.337709999999999955e+00 5.878720000000000390e+00 9.950260000000000105e+00 4.028669999999999973e+00 1.131129999999999969e+00 1.128755999999999915e+01 4.879730000000000345e+00 3.464620000000000033e+00 1.152266000000000012e+01 6.433589999999999698e+00 1.083190000000000097e+00 1.277075999999999922e+01 7.195079999999999920e+00 3.663380000000000081e+00 1.406446000000000041e+01 8.100920000000000343e+00 5.872749999999999915e+00
8.644270000000000564e+00 6.567000000000000615e-02 2.946999999999999967e-02 5.865009999999999835e+00 8.098219999999999530e+00 2.367010000000000058e+00 7.070759999999999934e+00 8.975820000000000576e+00 4.543610000000000149e+00 1.001402999999999999e+01 2.473310000000000120e+00 3.824000000000000316e-02 1.146091000000000015e+01 3.316040000000000099e+00 2.424500000000000099e+00 4.139319999999999666e+00 3.751009999999999955e+00 4.644899999999999807e+00 1.138594999999999935e+01 4.979180000000000383e+00 1.011599999999999999e-01 4.363830000000000098e+00 5.695389999999999731e+00 2.116239999999999899e+00 5.797579999999999956e+00 6.683510000000000062e+00 4.721599999999999575e+00 7.070339999999999847e+00 2.483350000000000168e+00 6.865879999999999761e+00 8.653299999999999770e+00 8.089700000000000557e+00 2.268539999999999779e+00 1.002534999999999954e+01 8.764960000000000306e+00 4.521060000000000301e+00 4.226390000000000313e+00 2.498180000000000067e+00 9.636000000000000121e-02 5.763819999999999943e+00 3.332219999999999960e+00 2.387179999999999858e+00 6.997760000000000424e+00 4.084410000000000096e+00 4.675869999999999749e+00 5.658789999999999765e+00 5.029799999999999827e+00 2.947999999999999926e-02 7.242429999999999701e+00 5.659909999999999997e+00 2.374130000000000074e+00 8.529400000000000759e+00 6.420539999999999914e+00 4.704970000000000319e+00 5.604989999999999917e+00 1.000500000000000000e-01 6.973999999999999644e-02 6.982940000000000147e+00 8.813299999999999468e-01 2.211380000000000123e+00 1.273964999999999925e+01 8.924519999999999342e+00 4.736629999999999896e+00 6.930109999999999992e+00 2.598809999999999842e+00 2.109900000000000109e-01 8.618520000000000181e+00 3.282020000000000159e+00 2.409720000000000084e+00 9.891550000000000509e+00 4.090989999999999682e+00 4.707019999999999982e+00 8.553250000000000242e+00 5.017000000000000348e+00 5.879999999999999810e-02 9.995290000000000674e+00 5.721090000000000231e+00 2.396110000000000184e+00 1.146875000000000000e+01 6.489399999999999835e+00 4.744930000000000092e+00 2.871960000000000068e+00 1.693210000000000104e+00 1.227379999999999916e+00 4.343849999999999767e+00 2.498889999999999834e+00 3.419360000000000177e+00 5.540119999999999933e+00 3.466499999999999915e+00 5.894470000000000098e+00 4.156189999999999607e+00 4.105159999999999698e+00 1.062210000000000099e+00 5.563019999999999854e+00 5.036839999999999762e+00 3.757470000000000088e+00 7.049089999999999634e+00 5.820630000000000415e+00 5.910750000000000171e+00 5.667480000000000295e+00 6.828350000000000364e+00 1.093579999999999997e+00 7.157659999999999911e+00 7.280350000000000321e+00 3.388900000000000023e+00 8.490919999999999135e+00 8.414740000000000109e+00 5.702689999999999593e+00 5.693870000000000431e+00 1.726900000000000102e+00 1.210909999999999931e+00 7.266169999999999796e+00 2.334369999999999834e+00 3.460469999999999935e+00 8.502499999999999503e+00 3.204909999999999926e+00 5.871859999999999857e+00 7.056569999999999787e+00 4.283079999999999998e+00 1.143890000000000073e+00 8.529650000000000176e+00 4.730159999999999698e+00 3.580880000000000063e+00 9.886990000000000833e+00 5.617119999999999891e+00 5.783990000000000187e+00 8.499330000000000496e+00 6.572840000000000238e+00 1.029109999999999969e+00 9.965299999999999159e+00 7.250210000000000043e+00 3.425079999999999902e+00 1.133314999999999984e+01 8.139020000000000366e+00 5.773819999999999730e+00 8.521020000000000039e+00 1.837590000000000057e+00 9.079099999999999948e-01 9.900800000000000267e+00 2.297579999999999956e+00 3.355210000000000026e+00 1.140845000000000020e+01 3.213859999999999939e+00 5.622659999999999769e+00 9.989369999999999195e+00 4.155260000000000176e+00 9.608100000000000529e-01 1.133125000000000071e+01 4.833829999999999849e+00 3.557259999999999867e+00 1.132745000000000068e+01 6.812940000000000218e+00 1.060990000000000100e+00 1.287284999999999968e+01 7.120540000000000092e+00 3.501329999999999831e+00 1.413734999999999964e+01 8.122980000000000089e+00 5.792040000000000077e+00
7.191000000000000170e-02 6.006000000000000227e-02 1.340000000000000045e-03 9.794140000000000512e+00 9.043600000000000527e-01 2.444609999999999950e+00 1.116630999999999929e+01 1.749689999999999968e+00 4.662700000000000067e+00 5.728930000000000078e+00 4.798860000000000348e+00 7.017929999999999779e+00 2.924679999999999946e+00 3.308780000000000054e+00 2.399880000000000013e+00 1.254743000000000031e+01 4.076109999999999900e+00 4.580720000000000347e+00 7.097369999999999735e+00 7.524169999999999803e+00 7.013829999999999565e+00 1.266840999999999973e+01 5.907820000000000071e+00 2.328370000000000051e+00 5.748719999999999608e+00 6.664699999999999847e+00 4.592419999999999725e+00 6.981819999999999915e+00 2.540000000000000036e+00 6.948909999999999698e+00 4.185529999999999973e+00 9.187899999999999956e-01 2.435919999999999863e+00 5.636580000000000368e+00 1.821809999999999929e+00 4.582989999999999675e+00 4.114390000000000214e+00 2.418299999999999894e+00 2.667999999999999886e-02 5.629579999999999806e+00 3.325779999999999959e+00 2.257410000000000139e+00 7.059759999999999813e+00 4.229610000000000092e+00 4.610759999999999970e+00 5.606559999999999988e+00 4.914489999999999803e+00 5.769999999999999955e-03 7.065190000000000303e+00 5.763539999999999885e+00 2.267570000000000086e+00 8.502570000000000405e+00 6.579930000000000057e+00 4.677999999999999936e+00 5.798770000000000202e+00 6.137000000000000094e-02 9.687999999999999390e-02 1.121311000000000035e+01 8.231550000000000367e+00 2.348809999999999842e+00 8.490349999999999397e+00 1.694339999999999957e+00 4.584439999999999849e+00 7.133919999999999817e+00 2.383420000000000094e+00 5.390000000000000346e-02 8.333069999999999311e+00 3.387739999999999974e+00 2.362919999999999909e+00 9.921509999999999607e+00 4.154889999999999972e+00 4.629179999999999851e+00 8.600889999999999702e+00 5.048589999999999911e+00 8.750000000000000833e-03 9.910510000000000375e+00 5.807979999999999698e+00 2.245600000000000041e+00 1.119311000000000078e+01 6.766969999999999708e+00 4.629229999999999734e+00 2.862550000000000150e+00 1.481070000000000109e+00 1.082689999999999930e+00 4.201730000000000409e+00 2.648289999999999811e+00 3.623600000000000154e+00 5.568179999999999907e+00 3.338130000000000042e+00 5.863669999999999938e+00 4.149750000000000050e+00 4.084430000000000227e+00 1.101290000000000102e+00 5.484340000000000437e+00 5.165720000000000312e+00 3.379500000000000171e+00 6.887310000000000265e+00 5.765390000000000015e+00 5.889210000000000278e+00 5.516250000000000320e+00 6.640950000000000131e+00 1.168400000000000105e+00 7.027560000000000251e+00 7.439540000000000042e+00 3.572319999999999940e+00 8.537530000000000285e+00 8.310959999999999681e+00 5.770010000000000083e+00 5.686609999999999943e+00 1.560170000000000057e+00 1.298319999999999919e+00 7.066910000000000025e+00 2.543070000000000164e+00 3.509360000000000035e+00 8.534879999999999356e+00 3.396799999999999820e+00 5.971770000000000245e+00 7.062579999999999636e+00 4.087930000000000064e+00 1.119590000000000085e+00 8.435499999999999332e+00 5.033479999999999954e+00 3.502930000000000099e+00 1.007180999999999926e+01 5.765290000000000248e+00 5.816709999999999603e+00 8.377240000000000464e+00 6.542539999999999800e+00 1.309090000000000087e+00 9.853300000000000836e+00 7.554499999999999993e+00 3.622889999999999944e+00 1.131591000000000058e+01 8.294560000000000599e+00 5.968230000000000146e+00 8.428530000000000300e+00 1.716069999999999984e+00 1.103040000000000020e+00 9.875019999999999243e+00 2.592909999999999826e+00 3.459979999999999833e+00 1.126201000000000008e+01 3.397380000000000067e+00 5.901799999999999713e+00 9.758620000000000516e+00 4.060789999999999900e+00 1.165289999999999937e+00 1.133540999999999954e+01 5.070839999999999570e+00 3.655600000000000183e+00 1.130361000000000082e+01 6.666360000000000063e+00 1.205470000000000041e+00 1.267271000000000036e+01 7.449609999999999843e+00 3.707790000000000141e+00 1.413490999999999964e+01 8.322380000000000777e+00 5.842819999999999681e+00
4.165230000000000210e+00 2.397019999999999929e+00 6.685469999999999580e+00 9.626210000000000377e+00 8.077199999999999935e-01 2.203710000000000058e+00 2.865489999999999871e+00 1.633070000000000022e+00 4.471750000000000114e+00 9.660989999999999966e+00 2.437219999999999942e+00 4.089000000000000273e-02 2.825460000000000083e+00 3.186539999999999928e+00 2.212619999999999809e+00 4.219269999999999854e+00 3.898750000000000160e+00 4.437999999999999723e+00 1.099130000000000074e+01 4.763139999999999930e+00 2.182999999999999871e-02 1.238260000000000005e+01 5.528929999999999900e+00 2.270179999999999865e+00 5.596940000000000026e+00 6.417790000000000106e+00 4.443859999999999921e+00 2.744019999999999904e+00 1.938000000000000139e-02 3.889999999999999708e-02 8.249579999999999913e+00 7.928639999999999688e+00 2.249620000000000175e+00 9.652440000000000353e+00 8.718579999999999330e+00 4.530310000000000059e+00 4.132030000000000314e+00 2.371449999999999836e+00 2.273999999999999980e-02 5.498689999999999856e+00 3.233420000000000183e+00 2.308850000000000069e+00 6.959240000000000315e+00 3.956129999999999924e+00 4.485960000000000392e+00 5.509890000000000398e+00 4.831190000000000317e+00 2.894000000000000045e-02 6.904860000000000220e+00 5.544179999999999886e+00 2.299069999999999947e+00 8.392689999999999984e+00 6.326380000000000337e+00 4.581780000000000186e+00 1.376567999999999969e+01 9.492760000000000531e+00 6.719319999999999737e+00 1.105949999999999989e+01 7.934969999999999857e+00 2.253480000000000150e+00 8.284520000000000550e+00 1.671640000000000015e+00 4.501430000000000042e+00 6.832880000000000287e+00 2.302459999999999951e+00 1.028499999999999970e-01 8.300480000000000302e+00 3.237859999999999960e+00 2.277480000000000171e+00 9.699740000000000251e+00 3.956980000000000164e+00 4.442210000000000214e+00 8.268090000000000828e+00 4.816309999999999647e+00 1.477199999999999902e-01 9.685200000000000031e+00 5.575980000000000381e+00 2.208680000000000199e+00 1.095809999999999995e+01 6.442989999999999995e+00 4.495960000000000178e+00 2.748930000000000096e+00 1.576600000000000001e+00 1.130889999999999951e+00 4.216800000000000104e+00 2.439499999999999780e+00 3.345340000000000202e+00 5.517960000000000420e+00 3.247320000000000206e+00 5.643130000000000202e+00 4.138010000000000410e+00 3.979420000000000179e+00 1.125389999999999890e+00 5.425959999999999894e+00 4.802850000000000286e+00 3.392450000000000188e+00 6.907860000000000333e+00 5.504229999999999734e+00 5.605850000000000222e+00 5.470189999999999664e+00 6.341190000000000104e+00 1.156609999999999916e+00 6.945490000000000386e+00 7.173869999999999969e+00 3.351210000000000022e+00 8.346149999999999736e+00 7.906589999999999563e+00 5.654370000000000118e+00 5.508600000000000385e+00 1.535409999999999942e+00 1.063360000000000083e+00 6.866719999999999935e+00 2.444290000000000074e+00 3.356570000000000054e+00 8.285589999999999122e+00 3.179600000000000204e+00 5.648950000000000138e+00 6.894540000000000113e+00 4.015240000000000364e+00 1.064840000000000009e+00 8.300079999999999458e+00 4.752320000000000100e+00 3.406579999999999941e+00 9.789009999999999323e+00 5.637990000000000279e+00 5.658350000000000435e+00 8.186999999999999389e+00 6.352870000000000239e+00 1.193389999999999951e+00 9.643599999999999284e+00 7.125440000000000218e+00 3.402010000000000201e+00 1.111410000000000053e+01 7.870659999999999989e+00 5.583300000000000374e+00 8.273839999999999861e+00 1.541630000000000056e+00 1.090689999999999937e+00 9.668689999999999785e+00 2.424259999999999859e+00 3.394540000000000113e+00 1.108559999999999945e+01 3.264019999999999921e+00 5.563780000000000392e+00 9.688689999999999358e+00 3.958110000000000017e+00 1.098060000000000036e+00 1.105940000000000012e+01 4.794559999999999711e+00 3.478130000000000166e+00 1.100970000000000049e+01 6.401570000000000427e+00 1.165340000000000042e+00 1.240329999999999977e+01 7.059879999999999711e+00 3.424819999999999975e+00 1.376229999999999976e+01 7.942300000000000360e+00 5.635440000000000005e+00