-4.192096372999999971e+02
-4.271909685699999955e+02
-4.224150152999999932e+02
-4.265674044400000184e+02
-4.276434619199999929e+02
-4.262595502899999929e+02
-4.182555262899999775e+02
-4.230058576900000276e+02
-4.263715376299999775e+02
-4.199505290000000173e+02
-4.237430372700000021e+02
-4.275307952200000159e+02
-4.245017581600000085e+02
-4.236900231999999846e+02
-4.261412656900000115e+02
-4.246205354100000022e+02
-4.245577939199999946e+02
-4.275402031099999931e+02
-4.275911120000000096e+02
-4.214454734000000258e+02
-4.204594584399999917e+02
-4.217372871200000191e+02
-4.275373178899999971e+02
-4.203195784299999787e+02
-4.175985582299999805e+02
-4.187977842799999735e+02
-4.228004196800000045e+02
-4.208508143000000246e+02
-4.271634534300000041e+02
-4.232376647500000217e+02
-4.189820610799999940e+02
-4.218778333000000202e+02
-4.237446696800000154e+02
-4.209595436800000243e+02
-4.200856052600000226e+02
-4.218738574500000027e+02
-4.270838221700000190e+02
-4.274922664200000213e+02
-4.222255365199999915e+02
-4.189805139399999803e+02
-4.193005259500000079e+02
-4.215782723099999885e+02
-4.191475491499999748e+02
-4.210233790799999838e+02
-4.269952764799999727e+02
-4.177171797099999822e+02
-4.262595502899999929e+02
-4.245186201600000118e+02
-4.218929810000000202e+02
-4.231555947800000013e+02
