8.605404538000000159e+00 0.000000000000000000e+00 0.000000000000000000e+00 4.396203695999999717e+00 7.513771442000000356e+00 0.000000000000000000e+00 4.346627533000000376e+00 2.399804896000000021e+00 6.951473327000000424e+00
8.525326429999999789e+00 0.000000000000000000e+00 0.000000000000000000e+00 4.041119176999999674e+00 7.405061392000000353e+00 0.000000000000000000e+00 4.393660676999999737e+00 2.255785014999999838e+00 7.059382403999999944e+00
8.643843716999999316e+00 0.000000000000000000e+00 0.000000000000000000e+00 4.466646877999999710e+00 7.308879292000000305e+00 0.000000000000000000e+00 4.253069627000000352e+00 2.441775546000000130e+00 7.049606004000000148e+00
8.584076936000000657e+00 0.000000000000000000e+00 0.000000000000000000e+00 4.147895012000000214e+00 7.418116000000000376e+00 0.000000000000000000e+00 4.193333445999999576e+00 2.438363483999999914e+00 6.853558323999999757e+00
8.519611325999999707e+00 0.000000000000000000e+00 0.000000000000000000e+00 4.299626016000000384e+00 7.540076110000000220e+00 0.000000000000000000e+00 4.313579884000000142e+00 2.708568731000000174e+00 6.895509517999999893e+00
