-4.273537979000000178e+02
-4.270501752499999952e+02
-4.302638311300000282e+02
-4.274873929600000224e+02
-4.279077655699999809e+02
