7.230150000000000077e+00 -3.445701000000000125e+00 6.695604000000000333e+00 1.105040000000000050e-01 -1.487614999999999910e+00 2.934340000000000170e+00 -1.855968999999999980e+00 -2.197969999999999924e-01 -3.075314999999999799e+00 1.104406999999999917e+00 -1.760490000000000110e-01 -1.404552000000000023e+00 -1.606281000000000070e+00 -4.180849999999999844e-01 7.154009999999999536e-01 -1.644736999999999894e+00 -1.755695999999999923e+00 1.383540000000000048e-01 1.899550000000000127e-01 5.707929999999999948e-01 -1.094978000000000007e+00 -1.170428000000000024e+00 1.214401000000000064e+00 6.451850000000000085e-01 7.119250000000000300e-01 1.976547999999999972e+00 -3.311419999999999919e-01 3.898769999999999736e-01 1.022035000000000027e+00 1.028980000000000006e+00 8.189729999999999510e-01 -2.803592999999999780e+00 9.141259999999999941e-01 -1.152965000000000018e+00 -1.535499999999999921e-01 8.265759999999999774e-01 -1.351439999999999975e+00 -3.957359999999999767e-01 8.443490000000000162e-01 -5.564299999999999802e-02 5.748469999999999969e-01 1.305209999999999981e-01 1.149825000000000097e+00 9.905260000000000176e-01 -1.643486000000000002e+00 6.420730000000000048e-01 -5.237880000000000313e-01 8.667040000000000299e-01 3.305254000000000136e+00 -8.095860000000000278e-01 -1.021360000000000046e+00 1.196374000000000049e+00 -1.059776999999999969e+00 -9.177659999999999707e-01 -1.481709999999999972e-01 1.313960000000000017e+00 4.726000000000000340e-02 -1.336238999999999955e+00 -2.188807000000000169e+00 -1.915202999999999989e+00 1.560198999999999891e+00 1.978229999999999933e+00 5.462310000000000221e-01 2.557765999999999984e+00 6.497129999999999850e-01 -1.249884999999999913e+00 -8.905790000000000095e-01 1.814502000000000059e+00 1.514367999999999936e+00 9.887850000000000250e-01 1.141102000000000061e+00 -7.112899999999999778e-02 4.411229999999999873e-01 -1.864144000000000023e+00 2.228127000000000191e+00 2.786100000000000035e-02 -2.527505999999999808e+00 1.996734000000000009e+00 -1.540874999999999995e+00 -1.035452999999999957e+00 3.372359999999999802e-01 -1.155869000000000035e+00 1.152041000000000093e+00 -3.792126999999999803e+00 2.916549999999999976e+00 -8.944929999999999826e-01 7.447589999999999488e-01 2.136058999999999930e+00 1.421723999999999988e+00 2.932759999999999811e-01 -2.377832000000000168e+00 4.185900000000000176e-01 5.799560000000000271e-01 -1.866025000000000045e+00 1.184614000000000056e+00 1.085520999999999958e+00 -1.540877000000000052e+00 -2.263789999999999969e-01 2.494974000000000025e+00 -7.645060000000000189e-01 5.343560000000000532e-01 -1.277466999999999908e+00 -5.871119999999999672e-01 1.570189000000000057e+00 1.847885000000000000e+00 1.590506999999999893e+00 -2.956706000000000056e+00 8.360469999999999846e-01 5.324149999999999716e-01 1.440765999999999991e+00 -6.955029999999999824e-01 1.043886000000000092e+00 9.960170000000000412e-01 -2.198900000000000160e-02 -4.923429999999999751e-01 4.337099999999999983e-02 -1.906411000000000078e+00 1.849372999999999934e+00 -1.532853999999999939e+00 -1.590105000000000102e+00 -5.466020000000000323e-01 -1.382740000000000080e+00 -1.795136000000000065e+00 1.701630999999999894e+00 1.412862999999999980e+00 -4.466180000000000150e-01 -1.210752000000000050e+00 4.320880000000000276e-01 -1.756151999999999935e+00 -3.471130000000000049e-01 1.174244000000000065e+00 3.042926000000000020e+00 -9.685190000000000188e-01 2.352279999999999927e-01 -9.976030000000000175e-01 -1.934312000000000031e+00 1.099784000000000095e+00 -2.587111999999999856e+00 2.005919999999999925e-01 -7.229740000000000055e-01 2.006927000000000127e+00 -7.776658000000000293e+00 5.894733999999999696e+00 -3.896701999999999888e+00 -5.689340000000000508e-01 -1.822969999999999868e-01 -1.217459000000000069e+00 -3.444099999999999939e-01 -7.876330000000000275e-01 -2.754557000000000144e+00 2.109696000000000016e+00 1.308599999999999985e+00 1.828575000000000061e+00 1.487325000000000008e+00 -2.098011000000000070e+00 7.320379999999999665e-01 -3.775410000000000155e-01 -1.061487000000000069e+00 -6.167629999999999502e-01 -2.380352999999999941e+00 -8.554100000000000037e-01 1.735349999999999948e-01
2.347764000000000184e+00 1.023347000000000007e+00 -9.539379999999999526e-01 1.234866999999999937e+00 -2.773445000000000160e+00 1.871099999999999985e+00 -4.042819999999999747e-01 1.306006000000000000e+00 -6.658709999999999907e-01 -1.267721000000000098e+00 -8.190499999999999448e-01 -9.261840000000000073e-01 -8.112530000000000019e-01 1.990154999999999896e+00 2.768477999999999994e+00 3.060089999999999755e-01 6.173880000000000479e-01 4.483519999999999728e-01 -1.774807000000000023e+00 1.363075999999999954e+00 -1.204866999999999910e+00 1.034758000000000067e+00 3.219400000000000039e-01 -2.777979999999999894e-01 -5.301799999999999846e-01 -1.478350000000000053e+00 -1.444879999999999942e+00 -4.797150000000000025e-01 2.867748000000000186e+00 -4.183319999999999816e-01 -7.975400000000000544e-02 -1.155156999999999989e+00 6.371719999999999606e-01 2.093885000000000218e+00 9.505069999999999908e-01 -5.283600000000000102e-02 -1.109142999999999990e+00 -2.296056000000000097e+00 -3.966971000000000025e+00 8.107550000000000034e-01 -4.802100000000000257e-01 -5.790680000000000271e-01 3.804279999999999884e-01 -2.979185999999999890e+00 1.311960999999999933e+00 -8.083139999999999770e-01 -1.241489999999999955e-01 2.825410999999999895e+00 -1.878538999999999959e+00 1.724029000000000034e+00 -2.755500000000000171e-01 1.874044999999999961e+00 2.242970999999999826e+00 1.257643000000000066e+00 -3.604858000000000118e+00 -5.344010000000000149e-01 -2.903800000000000131e-02 3.829199999999999965e-02 -1.170299999999999951e-01 -5.797229999999999883e-01 -4.283279999999999865e-01 8.769860000000000433e-01 1.871299999999999963e+00 -1.807890000000000053e-01 -1.530399999999999983e+00 -3.423089999999999744e-01 -2.039970000000000117e-01 4.774500000000000272e-02 4.116870000000000251e-01 9.141350000000000309e-01 3.601113999999999926e+00 -4.433039999999999758e-01 -1.081512999999999947e+00 -2.397019999999999984e-01 -3.853090000000000126e-01 -1.340195000000000025e+00 -9.847270000000000190e-01 3.817220000000000057e-01 3.518290000000000028e-01 2.622800000000000131e-02 -2.047589999999999966e-01 6.930699999999999361e-02 3.362149999999999861e-01 2.263350000000000084e-01 1.740930000000000089e+00 3.184649999999999981e-01 1.733254999999999990e+00 -9.584880000000000067e-01 -3.502560000000000118e-01 -2.383145999999999987e+00 8.387970000000000148e-01 1.758073999999999915e+00 1.212852000000000041e+00 7.296099999999999808e-01 1.118050000000000016e-01 -2.984080000000000066e-01 -1.061741000000000046e+00 -5.202609999999999735e-01 -1.108718000000000092e+00 1.950368000000000102e+00 1.221805999999999948e+00 -9.503150000000000208e-01 1.555070000000000063e-01 -8.363319999999999643e-01 1.208337999999999912e+00 2.949124999999999996e+00 -5.397079999999999655e-01 -1.134984999999999911e+00 1.172463000000000033e+00 -2.048690000000000122e+00 1.155324000000000018e+00 -8.418849999999999945e-01 2.349963999999999942e+00 -8.486289999999999667e-01 -7.816579999999999639e-01 3.427410000000000179e-01 1.822726000000000068e+00 3.711760000000000059e-01 -1.454792000000000085e+00 1.548421999999999965e+00 -2.942540000000000155e-01 8.406999999999999543e-03 -3.713049999999999962e-01 1.011438999999999977e+00 -4.522470000000000101e-01 -4.576359999999999872e-01 8.120380000000000376e-01 1.237778000000000045e+00 -2.769190000000000262e-01 -2.443639000000000117e+00 -3.105827000000000115e+00 -5.026519999999999877e-01 1.431708999999999898e+00 1.595490999999999993e+00 -4.946960000000000246e-01 -7.472919999999999563e-01 1.516632999999999898e+00 -2.601339999999999764e-01 -9.621239999999999792e-01 -1.256259999999999932e+00 6.896930000000000005e-01 1.595102999999999938e+00 2.332285999999999859e+00 -2.672365999999999797e+00 -3.796800000000000175e-02 1.413989999999999969e-01 3.621610000000000107e-01 -1.099933999999999967e+00 -6.228329999999999700e-01 2.151658999999999988e+00 -1.343997000000000108e+00 -1.993360000000000132e-01 -1.049587000000000048e+00 3.669595000000000162e+00 6.401820000000000288e-01 1.521546999999999983e+00 1.056856999999999935e+00 -1.650946999999999942e+00 2.202500000000000013e-01 -4.384425000000000239e+00 -4.321134999999999948e+00 -2.077157999999999838e+00
1.857483999999999913e+00 -1.870730999999999922e+00 -1.666910000000000058e-01 3.221464000000000105e+00 9.832699999999999774e-02 9.753599999999999770e-02 -1.812016999999999989e+00 1.706625999999999976e+00 1.555930000000000091e-01 8.657489999999999908e-01 1.214947999999999917e+00 1.707993000000000094e+00 -1.526437999999999962e+00 -4.787989999999999746e-01 -1.335190000000000099e+00 1.758458999999999994e+00 2.088180000000000036e-01 6.100849999999999884e-01 -1.533271999999999968e+00 -2.687249999999999917e-01 7.758690000000000309e-01 4.587260000000000226e-01 -2.443529999999999869e-01 -7.078079999999999927e-01 -1.229875000000000052e+00 1.163216000000000028e+00 5.714010000000000478e-01 -1.189680999999999989e+00 1.582964999999999955e+00 8.158980000000000121e-01 -9.021609999999999907e-01 8.928600000000000425e-02 2.364910000000000068e-01 -2.517789999999999750e-01 8.537029999999999896e-01 -2.296400000000000108e-01 -7.170739999999999892e-01 4.494487000000000343e+00 2.014272000000000062e+00 2.182297000000000153e+00 -6.884179999999999744e-01 6.267869999999999830e-01 -1.086807999999999996e+00 -7.128959999999999742e-01 -1.418684999999999974e+00 1.289359999999999951e-01 1.757670000000000066e-01 5.485839999999999606e-01 -3.422439999999999927e-01 3.819589999999999930e-01 1.159672999999999954e+00 -8.558499999999999996e-01 -1.226939000000000002e+00 -1.286869999999999958e+00 4.391706000000000110e+00 -4.445306000000000424e+00 1.133360000000000062e-01 -1.005104999999999915e+00 3.062192000000000025e+00 1.230213000000000001e+00 1.178404000000000007e+00 -1.240628999999999982e+00 1.571971000000000007e+00 -1.020696000000000048e+00 2.341820999999999930e+00 8.077060000000000350e-01 -1.445038000000000045e+00 3.360214000000000034e+00 -1.861623999999999945e+00 -3.085539999999999949e-01 -6.975010000000000376e-01 4.703240000000000198e-01 2.349860000000000004e-01 1.111710000000000059e-01 3.919130000000000114e-01 -1.773592000000000057e+00 1.968080000000000107e-01 -5.054720000000000324e-01 7.800489999999999924e-01 9.530269999999999575e-01 1.428404999999999925e+00 -5.341810000000000169e-01 1.256709999999999994e+00 -9.914690000000000447e-01 1.659326999999999996e+00 2.414409999999999890e-01 -1.486304999999999987e+00 -2.326699999999999879e-01 -7.198430000000000106e-01 -2.793379999999999752e-01 -1.165672999999999959e+00 1.000698000000000087e+00 2.567119999999999957e-01 -5.086469999999999603e-01 1.999665000000000026e+00 -4.415680000000000160e-01 -1.275225999999999971e+00 1.496460000000000012e-01 -3.337999999999999856e-01 -1.602810000000000068e-01 -1.979154999999999998e+00 6.388530000000000042e-01 9.903640000000000221e-01 -1.193750000000000089e+00 -8.033400000000000540e-01 1.161581999999999892e+00 -1.547171000000000074e+00 -3.909380000000000077e-01 4.110309999999999797e-01 -2.302925999999999807e+00 -1.225376999999999938e+00 5.784859999999999447e-01 -1.160817999999999905e+00 -1.584599999999999898e-01 -7.938349999999999573e-01 5.252419999999999867e-01 -8.991789999999999505e-01 -2.150739000000000178e+00 -1.264564000000000021e+00 8.503299999999999748e-02 8.299399999999999833e-02 4.616839999999999833e-01 1.556880999999999959e+00 2.615999999999999836e-03 -1.702879999999999949e+00 -7.181549999999999878e-01 2.094500000000000028e+00 1.310232999999999981e+00 -2.763390000000000013e-01 -6.242999999999999661e-01 2.133089999999999986e-01 1.214264999999999928e+00 6.491289999999999560e-01 -2.557150000000000256e-01 -1.727551999999999977e+00 1.426417999999999964e+00 -2.561160000000000103e-01 9.843060000000000143e-01 1.225252000000000008e+00 -1.752960000000000074e+00 1.146527999999999992e+00 -1.426245999999999903e+00 -1.714692000000000105e+00 -2.336408000000000040e+00 1.025222999999999995e+00 -2.549603999999999981e+00 -6.921789999999999887e-01 3.877470000000000083e-01 6.243619999999999726e-01 4.537610000000000254e-01 5.795240000000000391e-01 3.416210000000000080e-01 -1.941890000000000005e-01 -9.102810000000000068e-01 5.621099999999999708e-02 -5.587060000000000359e-01 -1.490817000000000059e+00 -1.488170000000000048e-01 -4.356929999999999970e-01 -1.059377000000000013e+00 2.471500000000000086e-01 -2.094129999999999880e-01
6.441959999999999908e-01 -2.112138999999999989e+00 5.568340000000000511e-01 1.317034000000000038e+00 2.081364999999999910e+00 3.807630000000000181e-01 -2.128697999999999979e+00 -1.574402000000000079e+00 -2.410553000000000168e+00 9.893750000000000044e-01 -3.808999999999999886e-03 3.447160000000000224e-01 -2.258755999999999986e+00 -1.429821000000000009e+00 3.288860000000000117e-01 2.610933000000000170e+00 1.571636000000000033e+00 -1.133439000000000085e+00 9.337429999999999897e-01 6.333569999999999478e-01 -1.248791999999999902e+00 -4.755650000000000155e-01 2.070983000000000018e+00 -3.732900000000000107e-01 2.126460000000000017e-01 -3.629609999999999781e-01 2.821054999999999868e+00 -2.937400000000000011e-01 -6.245980000000000310e+00 -3.291786999999999797e+00 1.487327999999999983e+00 3.954922999999999966e+00 -3.964056999999999942e+00 5.014950000000000241e-01 -1.180471000000000048e+00 -8.800959999999999894e-01 1.065010000000000012e+00 2.886756000000000100e+00 5.136669999999999847e-01 2.217560999999999893e+00 -1.155637000000000025e+00 -8.446540000000000159e-01 2.556590000000000251e-01 -6.391430000000000167e-01 2.207780000000000020e-01 -2.298757999999999857e+00 -7.465739999999999599e-01 1.688695999999999975e+00 1.423764999999999947e+00 -1.979349999999999998e-01 -1.523867000000000083e+00 1.903110000000000079e+00 -3.460866999999999916e+00 6.990448999999999913e+00 -2.744383000000000017e+00 -2.072267000000000081e+00 6.711200000000000498e-02 5.175939999999999985e-01 7.109630000000000116e-01 1.439872999999999958e+00 -3.596703000000000205e+00 1.557590999999999948e+00 4.097788000000000430e+00 1.426793999999999896e+00 -1.593873000000000095e+00 3.148588999999999860e+00 -1.434088000000000029e+00 8.263770000000000282e-01 -1.109366000000000074e+00 -1.441685000000000105e+00 -2.081806999999999963e+00 -2.401746999999999854e+00 -1.791399999999999937e-02 7.518029999999999990e-01 1.152338000000000084e+00 6.655980000000000230e-01 4.591729999999999978e-01 8.180250000000000021e-01 -4.354600000000000137e-01 4.024220000000000019e-01 -1.377664999999999917e+00 -6.249970000000000248e-01 5.147803999999999824e+00 3.737382000000000204e+00 7.636479999999999935e-01 1.094529999999999947e-01 1.636795000000000000e+00 -1.589207000000000036e+00 -8.372929999999999540e-01 -2.385579999999999923e-01 -1.529476000000000058e+00 -1.166150999999999938e+00 -7.146980000000000555e-01 2.065240999999999882e+00 -9.603909999999999947e-01 1.581441000000000097e+00 -8.938530000000000086e-01 -3.249759999999999871e-01 -3.098374999999999879e+00 -3.917099999999999749e-02 -1.897229999999999972e+00 -4.058109999999999773e-01 -3.631261999999999990e+00 -1.310224000000000055e+00 3.626229999999999731e-01 1.127958000000000016e+00 1.308573999999999904e+00 -2.174967000000000095e+00 4.298370000000000246e-01 9.040430000000000410e-01 5.415250000000000341e-01 -1.188717999999999941e+00 -1.231330000000000063e-01 1.936342000000000008e+00 -5.821790000000000020e-01 1.091059999999999919e+00 -7.373750000000000027e-01 -1.106462999999999974e+00 7.599650000000000016e-01 1.774135999999999935e+00 -1.496424999999999894e+00 -1.045150999999999941e+00 -8.372220000000000217e-01 -1.050934999999999953e+00 8.862550000000000150e-01 8.543000000000000593e-02 -1.242896000000000001e+00 3.160299999999999915e-02 2.245769999999999988e-01 1.977843000000000018e+00 1.032202000000000064e+00 6.361179999999999612e-01 7.000840000000000396e-01 2.003127999999999798e+00 -3.398333000000000048e+00 1.472655999999999965e+00 1.000421999999999922e+00 4.736549999999999927e-01 1.919883000000000006e+00 1.650992000000000015e+00 -3.447102000000000110e+00 1.721621999999999986e+00 1.637615999999999961e+00 2.423827000000000176e+00 4.169209999999999861e-01 -2.666012999999999966e+00 -5.138800000000000312e-02 -2.838780000000000192e-01 -3.147409999999999930e-01 -2.262909999999999922e-01 2.179479999999999862e+00 -9.473939999999999584e-01 -1.825531999999999933e+00 -4.812159999999999771e-01 2.760949999999999793e-01 -6.522599999999999509e-01 1.495769999999999877e-01 1.578146999999999966e+00 -7.185399999999999565e-01 -2.301650000000000085e-01 -8.743279999999999941e-01 -8.976539999999999520e-01
3.389510000000000023e-01 9.381599999999999662e-02 -8.871449999999999614e-01 1.433199999999999925e-02 -3.837949999999999973e-01 3.847400000000000125e-02 1.966609000000000052e+00 -8.053489999999999815e-01 -6.854719999999999702e-01 -1.342400000000000017e-02 9.831429999999999891e-01 -1.728297999999999890e+00 2.740095999999999865e+00 -2.051640000000000130e-01 -3.684850000000000070e-01 5.447499999999999565e-01 -1.297835999999999990e+00 2.131339999999999790e+00 -4.430202999999999669e+00 1.255055999999999949e+00 3.476186000000000220e+00 -1.115426999999999946e+00 -2.465360000000000051e-01 1.230731999999999937e+00 -2.612442000000000153e+00 -1.900687000000000015e+00 1.896180999999999894e+00 1.098821999999999965e+00 1.440814999999999957e+00 -2.145032000000000050e+00 -1.901849999999999929e-01 -4.865269999999999873e-01 3.937990000000000101e-01 -7.311569999999999458e-01 1.995285999999999893e+00 1.408576000000000050e+00 -2.065046000000000159e+00 1.252596000000000043e+00 -5.584200000000000275e-02 5.462190000000000101e-01 -1.027104000000000017e+00 5.692319999999999602e-01 -2.139457999999999860e+00 7.813170000000000393e-01 1.069050999999999974e+00 -3.679919999999999858e-01 -1.666292000000000106e+00 1.264612999999999987e+00 -8.007400000000000628e-02 -8.261100000000000387e-02 1.227122000000000046e+00 1.656871999999999900e+00 -1.200000000000000030e-05 -4.838118999999999836e+00 3.902794000000000096e+00 -2.621796999999999933e+00 3.623299999999999854e-01 1.177748000000000017e+00 3.054806999999999828e+00 -2.362559999999999938e-01 7.225059999999999816e-01 -7.600310000000000121e-01 8.586859999999999493e-01 -7.133490000000000109e-01 -1.226676000000000100e+00 5.797999999999999682e-02 2.984669999999999823e-01 2.527400000000000091e+00 -1.977365999999999957e+00 1.316000000000000059e+00 -6.294800000000000395e-02 -1.129396999999999984e+00 -6.429660000000000375e-01 -1.419011999999999940e+00 -2.854570000000000163e-01 -4.408119999999999816e-01 -2.367236999999999814e+00 -1.236561999999999939e+00 7.534899999999999931e-01 -1.899679999999999980e-01 6.265560000000000018e-01 1.225689000000000028e+00 1.453299999999999870e-01 2.807304999999999939e+00 -3.376839999999999842e-01 -3.281529999999999725e-01 -5.652019999999999822e-01 6.064939999999999776e-01 7.973869999999999569e-01 -8.766929999999999445e-01 2.188260999999999790e+00 -5.220179999999999820e-01 2.251237999999999850e+00 1.475690000000000057e-01 2.033592000000000066e+00 -1.125078000000000022e+00 2.968077000000000076e+00 1.283886000000000083e+00 -2.672895000000000021e+00 -1.595109000000000110e+00 -3.660445999999999867e+00 -2.669219999999999926e-01 5.326959999999999473e-01 2.835289999999999755e-01 5.580730000000000413e-01 1.118563999999999892e+00 -9.079270000000000396e-01 -2.180054999999999854e+00 -1.504230000000000012e-01 5.638630000000000031e-01 2.050859999999999905e-01 -6.026880000000000015e-01 -3.117910000000000181e+00 4.105388999999999733e+00 -2.413171999999999873e+00 1.331310999999999911e+00 -2.551302000000000181e+00 -4.004249999999999754e-01 1.191503999999999897e+00 -1.219260000000000010e+00 -1.058270999999999962e+00 6.217949999999999866e-01 7.926569999999999450e-01 -3.449729999999999741e-01 -1.374120999999999926e+00 -2.097623000000000015e+00 4.717239999999999767e-01 5.559709999999999930e-01 3.866820000000000257e-01 2.777200000000000155e-02 1.555225999999999997e+00 1.550148999999999999e+00 -4.806019999999999737e-01 -1.259669999999999956e-01 -3.499079000000000050e+00 -1.934007999999999949e+00 -1.713743000000000016e+00 1.233481999999999967e+00 -1.374640000000000029e-01 -4.084010000000000140e-01 1.907861999999999947e+00 -1.011530000000000068e-01 1.380954999999999933e+00 1.332670000000000021e+00 -1.004569000000000045e+00 1.238123000000000085e+00 -8.767340000000000133e-01 2.668170000000000264e-01 3.260359999999999925e-01 1.199235000000000051e+00 7.888699999999999879e-02 1.305322000000000093e+00 -2.772533000000000136e+00 -3.779109999999999969e-01 -7.073000000000000294e-03 -1.579078999999999899e+00 -8.691210000000000324e-01 1.294970000000000010e-01 1.888524000000000092e+00 6.399010000000000531e-01 7.877769999999999495e-01 1.026677000000000062e+00
