-8.854000000000000759e-03 -1.785617999999999927e+00 7.326089999999999547e-01 2.697869999999999990e-01 9.470450000000000257e-01 8.254120000000000346e-01 -4.767930000000000224e-01 1.213886000000000021e+00 -1.128797999999999968e+00 9.812450000000000339e-01 -1.006154999999999911e+00 7.928100000000000147e-01 -8.736040000000000472e-01 2.001538000000000039e+00 3.062324999999999964e+00 -1.835179999999999867e-01 -1.564800000000000080e-01 9.268300000000000149e-02 -7.423279999999999879e-01 1.185580999999999996e+00 1.875917000000000057e+00 -2.115509999999999891e-01 -3.989579999999999793e-01 1.444850000000000023e-01 -5.773400000000000060e-02 1.667300000000000004e+00 5.936649999999999983e-01 3.507226000000000177e+00 6.739800000000000235e-01 -5.580129999999999812e-01 4.040540000000000020e+00 1.898681000000000063e+00 -3.173408999999999924e+00 -1.195248000000000088e+00 1.451942000000000066e+00 -1.194480999999999904e+00 -3.393079999999999985e-01 -6.424250000000000238e-01 -4.348190000000000111e-01 1.151585000000000081e+00 -1.357577000000000034e+00 -7.905579999999999830e-01 -2.106369999999999909e-01 -4.601800000000000335e-02 4.248060000000000169e-01 -2.239246000000000070e+00 1.958352000000000093e+00 -2.293040000000000078e-01 -1.345425000000000093e+00 -1.258258000000000099e+00 4.895229999999999859e-01 9.480539999999999523e-01 -1.375631000000000048e+00 -6.180179999999999563e-01 -1.748790000000000067e-01 1.953996000000000066e+00 6.995569999999999844e-01 -1.315944999999999920e+00 -1.435445000000000082e+00 3.494909999999999961e-01 -6.971600000000000019e-02 -1.155709000000000097e+00 1.085493000000000041e+00 5.073500000000000232e-02 -1.169669000000000070e+00 -1.413745000000000029e+00 5.810840000000000449e-01 1.457364000000000104e+00 8.429799999999999516e-01 1.826144999999999907e+00 1.084269999999999956e-01 -1.698477000000000015e+00 -1.491910000000000069e+00 -2.587949999999999973e-01 -6.660089999999999621e-01 -5.842600000000000016e-01 -6.119790000000000507e-01 2.233003000000000071e+00 1.113479000000000108e+00 -6.053370000000000140e-01 8.834549999999999903e-01 -6.105380000000000251e-01 -4.777870000000000172e-01 -1.252035999999999927e+00 1.500248000000000026e+00 -1.573401000000000050e+00 -1.020215000000000094e+00 -9.048340000000000272e-01 2.897199999999999775e-01 -1.861968000000000067e+00 -1.153934999999999933e+00 -2.448130000000000028e-01 -2.567159999999999997e-01 -4.688599999999999990e-01 -3.051248000000000182e+00 -2.207485999999999837e+00 1.829541000000000084e+00 5.913469999999999560e-01 5.063419999999999588e-01 1.265760999999999914e+00 2.754809999999999759e-01 -3.952849999999999975e-01 -3.395955999999999975e+00 -3.095130000000000159e+00 2.499115000000000197e+00 -3.592199999999999838e-01 -5.429799999999999904e-02 -1.658560000000000034e-01 -2.045790000000000108e-01 -4.264789999999999970e-01 2.757350000000000079e-01 8.416700000000000570e-02 1.435931000000000068e+00 1.586014999999999953e+00 1.260812999999999962e+00 1.897530000000000050e-01 -9.522979999999999778e-01 2.991152000000000033e+00 -1.108602000000000087e+00 2.823147000000000073e+00 -1.079858999999999902e+00 7.761620000000000186e-01 -5.393719999999999626e-01 -1.792650999999999994e+00 -1.261468000000000034e+00 -1.540982999999999992e+00 1.431780000000000053e+00 2.491919999999999968e-01 7.439109999999999889e-01 -2.422458999999999918e+00 8.558489999999999709e-01 -7.654279999999999973e-01 -1.547887000000000013e+00 3.679149999999999920e-01 4.944720000000000226e-01 1.196622000000000074e+00 2.523970999999999965e+00 1.528818999999999928e+00 -6.362480000000000357e-01 5.596160000000000023e-01 -1.968747999999999942e+00 -1.623451999999999895e+00 -4.356430000000000025e-01 -6.599990000000000023e-01 -1.614541999999999922e+00 -5.989699999999999885e-02 -1.556919999999999971e-01 1.480118000000000045e+00 3.391719999999999735e-01 -1.017522000000000038e+00 -3.956999999999999580e-03 1.128470000000000084e+00 6.682190000000000074e-01 1.231465000000000032e+00 -1.723169999999999980e-01 -1.049884000000000039e+00 5.983889999999999487e-01 -8.755340000000000344e-01 1.461130999999999958e+00
6.016949999999999799e-01 1.153351000000000015e+00 -8.535199999999999732e-02 -7.884820000000000162e-01 7.488609999999999989e-01 2.210611999999999799e+00 -4.744590000000000196e-01 -1.827016999999999891e+00 1.426769999999999983e-01 -2.564855000000000107e+00 1.125666000000000055e+00 1.294588999999999990e+00 -2.138936999999999866e+00 1.128597999999999990e+00 -2.454146999999999856e+00 2.435783999999999949e+00 -1.198490000000000055e+00 1.056902999999999926e+00 -3.576023000000000174e+00 -1.601819999999999911e-01 2.078010000000000135e-01 4.485943999999999932e+00 -1.109747000000000039e+00 1.706388000000000016e+00 -1.633585000000000065e+00 6.239378000000000313e+00 7.467279999999999474e-01 9.496710000000000429e-01 -4.137440000000000007e-01 7.834879999999999622e-01 -8.636540000000000328e-01 -6.286559999999999926e-01 1.144951999999999970e+00 2.819019999999999859e-01 -8.468699999999999839e-02 -9.816160000000000441e-01 3.144944000000000184e+00 5.228239999999999554e-01 2.254249999999999865e-01 1.246791999999999900e+00 3.309906999999999933e+00 -2.956269999999999731e-01 5.622169999999999668e-01 -1.646339999999999915e+00 -5.738520000000000287e-01 1.479179999999999939e-01 -1.396071000000000062e+00 2.946799999999999975e-01 -8.386329999999999618e-01 -9.251530000000000031e-01 -1.326299999999999979e-01 4.592289999999999983e-01 -1.328739999999999921e-01 3.135100000000000109e-01 -4.100779999999999981e-01 7.164610000000000145e-01 -1.254045000000000076e+00 1.998628000000000071e+00 2.119260000000000033e-01 3.491330000000000267e-01 -8.107100000000000417e-02 -8.146200000000000108e-01 -1.869404000000000066e+00 6.010739999999999972e-01 -3.454909999999999926e-01 -7.169299999999999562e-01 1.077220000000000066e+00 9.208950000000000191e-01 -7.962939999999999463e-01 -2.013371999999999939e+00 -1.428263999999999978e+00 9.089009999999999589e-01 -2.406179999999999986e+00 -3.493349999999999955e+00 -1.659912000000000054e+00 -5.974479999999999791e-01 -2.451918000000000042e+00 1.421947999999999990e+00 1.901240000000000041e+00 4.438409999999999855e-01 -1.788168999999999897e+00 1.888919000000000015e+00 -9.598529999999999562e-01 -1.522280999999999995e+00 -1.368781999999999943e+00 5.361139999999999795e-01 1.106599999999999945e-02 8.160250000000000004e-01 6.358989999999999920e-01 1.686625000000000041e+00 -1.512100000000000111e-01 5.723719999999999919e-01 1.619402000000000008e+00 -1.872945000000000082e+00 -5.713589999999999502e-01 -2.020999000000000212e+00 2.674945999999999824e+00 -1.429197999999999968e+00 6.435450000000000337e-01 -1.656650000000000067e-01 1.519539999999999891e+00 -1.575142999999999960e+00 -7.182539999999999480e-01 -5.052399999999999947e-02 -9.045590000000000019e-01 6.296629999999999727e-01 -1.072087999999999930e+00 -1.018818999999999919e+00 -1.065795999999999966e+00 -1.706749999999999989e+00 1.679826000000000041e+00 1.006718000000000002e+00 -5.017939999999999623e-01 3.271009999999999751e-01 -1.724749999999999894e-01 -1.783317999999999959e+00 -1.034179999999999960e-01 1.191966000000000081e+00 3.039254999999999818e+00 -1.279460000000000042e-01 -7.147520000000000540e-01 -1.237036999999999942e+00 2.687304000000000137e+00 -3.999750000000000250e-01 -3.837039999999999895e-01 4.984450000000000269e-01 -1.141742999999999952e+00 2.431620999999999810e+00 -8.268389999999999906e-01 -1.006412000000000084e+00 -1.435259999999999980e+00 -8.351690000000000502e-01 7.755570000000000519e-01 1.587345999999999924e+00 1.881456999999999935e+00 -1.162441000000000058e+00 -9.183400000000000452e-01 9.084179999999999477e-01 -3.474860000000000171e-01 1.989579999999999960e-01 4.122230000000000061e-01 8.057429999999999870e-01 -2.916940000000000088e-01 -1.985219000000000067e+00 1.291110000000000035e-01 -7.047679999999999501e-01 -1.664039999999999964e-01 8.812889999999999890e-01 9.277199999999999891e-01 1.216367999999999894e+00 -1.517624000000000084e+00 1.858049000000000062e+00 -8.685469999999999580e-01 -1.510712999999999973e+00 -1.196797000000000111e+00 2.998480000000000034e-01 1.008853999999999917e+00 2.470505999999999869e+00 -2.116042999999999896e+00
-5.535419999999999785e-01 7.546460000000000390e-01 -4.605250000000000177e-01 -9.937639999999999807e-01 4.737129999999999952e-01 -2.151718999999999937e+00 7.525319999999999787e-01 2.577693000000000012e+00 -2.456697999999999826e+00 -1.570230999999999932e+00 -1.371904000000000012e+00 2.092300999999999966e+00 -6.914949999999999708e-01 -1.273070000000000035e-01 -9.139260000000000161e-01 -6.998320000000000096e-01 -1.708865000000000078e+00 3.016739999999999977e-01 -7.806599999999999651e-02 -2.592379999999999907e+00 2.830119999999999858e-01 9.440079999999999583e-01 -6.056040000000000312e-01 1.133707999999999938e+00 8.336719999999999686e-01 -2.764393999999999796e+00 -8.987249999999999961e-01 -1.784000000000000169e-02 1.580540000000000000e-01 2.988899999999999890e-02 7.317510000000000403e-01 -1.359899999999999998e-01 2.685259999999999869e-01 6.187510000000000510e-01 1.962563000000000057e+00 1.532866999999999980e+00 -9.815190000000000303e-01 3.454999999999999738e-02 1.437473999999999918e+00 8.558710000000000484e-01 8.045020000000000504e-01 -1.061417000000000055e+00 2.255898000000000181e+00 9.504200000000000148e-02 2.552535999999999916e+00 3.471604000000000134e+00 -3.717928999999999817e+00 -3.684490000000000265e-01 -8.786340000000000261e-01 2.312825000000000131e+00 2.848060000000000036e-01 -4.337469999999999937e-01 1.383412000000000086e+00 -7.608829999999999760e-01 1.949935999999999892e+00 1.106481999999999966e+00 -2.116560000000000108e-01 -1.159451000000000009e+00 1.973994999999999944e+00 2.524522000000000155e+00 -1.622945000000000082e+00 1.668786000000000103e+00 -6.094810000000000505e-01 -9.357419999999999627e-01 -5.230569999999999942e-01 2.907569000000000070e+00 1.346891000000000060e+00 -4.090014000000000038e+00 -7.599770000000000136e-01 -1.397650000000000059e+00 -3.120092000000000088e+00 -5.393590000000000328e-01 1.834165000000000045e+00 8.776429999999999509e-01 -1.086843000000000004e+00 7.870390000000000441e-01 1.570964999999999945e+00 -1.149151999999999951e+00 -3.426600000000000201e-01 3.659426999999999985e+00 2.897339999999999915e-01 2.600586999999999982e+00 -2.457890000000000075e-01 1.023894000000000082e+00 2.704600000000000060e-02 -1.322554000000000007e+00 5.422010000000000440e-01 8.128220000000000445e-01 1.143116999999999939e+00 -2.033940999999999999e+00 -1.450069000000000052e+00 -2.647619999999999973e-01 -7.716570000000000373e-01 4.999430000000000263e-01 -1.129410000000000025e+00 2.480853000000000197e+00 1.164600000000000010e-02 7.306080000000000352e-01 -1.163456000000000046e+00 9.376459999999999795e-01 7.386800000000000033e-01 2.051949999999999885e-01 -1.506020000000000136e-01 1.400336999999999943e+00 1.541744000000000003e+00 3.173300000000000010e-01 -9.896420000000000217e-01 -2.219905999999999935e+00 -4.566049999999999831e-01 -1.253663999999999890e+00 -2.073399999999999965e-01 -3.322779999999999845e+00 -9.150859999999999550e-01 1.331968000000000041e+00 -1.987480000000000080e-01 -2.409469999999999945e-01 3.512779999999999792e-01 5.696400000000000075e-02 -5.870170000000000110e-01 -8.586759999999999948e-01 3.050059999999999993e-01 1.370872000000000090e+00 -3.897300000000000209e-01 1.131572000000000022e+00 6.936550000000000216e-01 -1.326921000000000017e+00 -5.097310000000000452e-01 -1.905689999999999884e-01 7.686539999999999484e-01 -1.148549999999999960e+00 -1.448746000000000089e+00 -8.872510000000000119e-01 -1.971569999999999989e-01 8.340180000000000371e-01 -2.556451000000000029e+00 6.506840000000000401e-01 -7.123509999999999565e-01 -2.575893999999999906e+00 2.080054000000000070e+00 -5.192029999999999701e-01 5.407650000000000512e-01 7.592449999999999477e-01 -3.078989999999999783e-01 1.899409999999999987e-01 -1.888340000000000019e-01 -5.077899999999999775e-02 -1.692000000000000101e-02 -1.705027000000000070e+00 -1.789066999999999963e+00 1.610009000000000023e+00 -1.992024999999999935e+00 1.584063999999999917e+00 -4.775499999999999884e-02 -1.482010000000000050e+00 1.985359000000000096e+00 1.506113999999999953e+00 -1.413407000000000080e+00 8.300119999999999720e-01 7.534760000000000346e-01
7.800070000000000059e-01 -9.650999999999999579e-01 -3.628509999999999791e-01 5.511129999999999640e-01 5.387999999999999734e-02 -8.915600000000000191e-01 1.546986999999999890e+00 -1.674000000000000141e-02 -1.212817000000000034e+00 -9.690849999999999742e-01 -2.999229999999999952e-01 2.158899999999999986e-01 1.191664000000000057e+00 1.095601000000000047e+00 -3.203851999999999922e+00 6.252379999999999605e-01 -1.150363999999999942e+00 8.226250000000000506e-01 1.733824999999999950e+00 1.891919999999999991e-01 1.408455999999999930e+00 -1.838708000000000009e+00 2.564731000000000094e+00 1.763010000000000133e-01 3.154219999999999802e-01 -1.616006999999999971e+00 -3.024335999999999913e+00 -1.422995000000000010e+00 2.578885999999999790e+00 1.311897000000000091e+00 -1.514512000000000080e+00 8.292819999999999636e-01 1.145316000000000001e+00 -1.881896999999999931e+00 2.636031000000000013e+00 1.839650999999999925e+00 -2.140426000000000162e+00 -1.065565000000000095e+00 3.203799999999999981e-01 7.607439999999999758e-01 -2.705443999999999960e+00 -8.617529999999999912e-01 4.916039999999999854e-01 1.410728999999999900e+00 6.716450000000000475e-01 -6.132490000000000441e-01 -1.632133999999999974e+00 -2.308285999999999838e+00 -5.740800000000000070e-02 2.180120000000000058e+00 -1.189610000000000056e+00 -1.554165000000000019e+00 -1.026323000000000096e+00 1.087671999999999972e+00 1.201799999999999917e-02 -2.305557999999999996e+00 -2.465516000000000041e+00 8.478329999999999478e-01 1.211210000000000064e-01 -1.662417999999999951e+00 3.636030000000000095e-01 -1.086179999999999923e+00 8.345339999999999980e-01 1.101453999999999933e+00 -6.972749999999999782e-01 1.365032999999999941e+00 -7.963550000000000351e-01 1.181664000000000048e+00 -2.275806000000000218e+00 -1.674679000000000029e+00 -1.486498000000000097e+00 -1.129018000000000077e+00 -3.170112000000000041e+00 -1.165670000000000039e-01 -2.107806000000000068e+00 1.976898000000000044e+00 1.479100000000000081e+00 1.827348999999999890e+00 -1.148943000000000048e+00 -2.294058999999999848e+00 -1.929791000000000034e+00 -4.320490000000000164e-01 -5.168620000000000436e-01 4.089940000000000242e-01 -2.774550000000000072e-01 1.170007000000000019e+00 1.983943999999999930e+00 -1.000173999999999896e+00 2.243981999999999921e+00 -1.890590000000000048e-01 1.193913999999999920e+00 2.064928999999999792e+00 4.575139999999999763e-01 -7.310529999999999529e-01 1.274839000000000055e+00 2.427719999999999878e-01 -9.860399999999999721e-02 -1.016968000000000094e+00 1.158992999999999940e+00 -3.912899999999999712e-02 -4.381499999999999978e-02 2.689633999999999858e+00 1.864602000000000093e+00 -3.012496000000000063e+00 1.882867000000000068e+00 -2.133788000000000018e+00 2.275500000000000092e-02 7.382729999999999571e-01 1.805050999999999961e+00 2.836711000000000205e+00 -1.162487000000000048e+00 1.753729000000000093e+00 -3.828179999999999916e-01 -7.173230000000000439e-01 8.130789999999999962e-01 1.123050000000000020e-01 1.354960000000000053e-01 -1.399237000000000064e+00 7.401389999999999914e-01 6.823249999999999593e-01 -1.919170000000000043e+00 -8.309199999999999919e-02 1.137944000000000067e+00 1.159205000000000041e+00 9.392819999999999503e-01 2.175666000000000100e+00 -4.453300000000000314e-02 -2.738539999999999974e+00 -1.175570999999999922e+00 1.951462000000000030e+00 -2.395512000000000086e+00 -1.202612000000000014e+00 1.977438999999999947e+00 1.779606000000000021e+00 -1.155299999999999938e-01 3.896109999999999851e-01 3.915680000000000271e-01 -9.582509999999999639e-01 -1.566639999999999977e-01 1.440520000000000023e+00 8.687500000000000222e-01 4.269760000000000222e-01 3.144609999999999905e-01 1.803120000000000001e-01 2.168794000000000111e+00 -2.578295999999999921e+00 -4.891170000000000240e-01 3.081735999999999809e+00 -9.033250000000000446e-01 7.096320000000000405e-01 -1.130494000000000110e+00 -3.543999999999999841e-03 -1.230434000000000028e+00 -2.650851999999999986e+00 -1.140233000000000052e+00 2.895150000000000223e-01 -8.827100000000000224e-02 1.627798000000000078e+00 3.096424999999999983e+00
2.765684999999999949e+00 -1.054199999999999998e-01 -2.340416999999999970e+00 -3.671360000000000179e-01 1.019527000000000072e+00 -3.812854999999999883e+00 5.792119999999999491e-01 8.534310000000000507e-01 -1.363742999999999927e+00 2.058028000000000191e+00 2.614638999999999935e+00 3.013999000000000095e+00 -8.849299999999999944e-01 -4.308520000000000127e-01 1.280335000000000001e+00 2.064782000000000117e+00 2.417587999999999848e+00 -3.090662000000000020e+00 -1.418212000000000028e+00 -4.155606999999999829e+00 -5.430730000000000279e-01 -2.510971000000000064e+00 2.297599999999999920e-01 -1.540178999999999965e+00 -5.551660000000000483e-01 -1.559604999999999908e+00 1.315098000000000100e+00 -8.778430000000000399e-01 3.021707000000000143e+00 -8.097809999999999730e-01 -5.633989999999999831e-01 2.825581000000000120e+00 -3.310409999999999742e-01 3.423617000000000132e+00 1.007273000000000085e+00 -2.053341000000000083e+00 -1.145045000000000091e+00 -2.214500000000000135e+00 -5.425119999999999942e-01 -2.331894000000000133e+00 8.478379999999999805e-01 -7.008529999999999482e-01 -5.001699999999999896e-02 8.060540000000000482e-01 2.307584999999999997e+00 -1.096600000000000005e-02 5.274649999999999617e-01 1.254478999999999900e+00 4.878190000000000026e-01 -1.464699999999999891e-01 -2.758369999999999989e-01 1.694561999999999902e+00 -1.776769999999999960e+00 2.391007999999999800e+00 -8.193319999999999492e-01 -1.605545999999999918e+00 -1.631029999999999980e-01 -1.783905999999999992e+00 -3.818099999999999966e-02 2.254102000000000050e+00 1.043592999999999993e+00 2.505247999999999919e+00 -1.747314000000000034e+00 -5.863899999999999668e-02 2.257479000000000013e+00 -2.160219999999999918e-01 2.275320000000000120e-01 -1.294937000000000005e+00 -1.561123000000000038e+00 -5.360759999999999970e-01 -8.436799999999999855e-01 2.210694000000000159e+00 -2.069050000000000056e-01 -1.540280000000000094e+00 7.216259999999999897e-01 -4.969300000000000106e-02 2.011438000000000059e+00 -4.089380000000000237e-01 -1.004858999999999947e+00 -1.174001000000000072e+00 -2.078221999999999792e+00 -6.506589999999999874e-01 1.356411000000000033e+00 4.090499999999999692e-02 1.438059999999999894e-01 -3.161640000000000006e-01 -9.562460000000000404e-01 -1.697919999999999985e-01 -3.482120000000000215e-01 -5.568279999999999896e-01 -9.785749999999999726e-01 -1.431669000000000080e+00 -3.620519999999999849e-01 1.629999999999999939e-03 -5.725120000000000209e-01 2.377772999999999914e+00 4.660940000000000083e-01 -1.024313000000000029e+00 9.969639999999999613e-01 -2.372713000000000072e+00 1.627107000000000081e+00 -1.996812999999999949e+00 1.271274000000000015e+00 -6.870039999999999480e-01 6.152590000000000003e-01 -4.023793000000000397e+00 -1.499419000000000057e+00 2.409394999999999953e+00 6.952400000000000246e-02 8.737559999999999771e-01 2.577945999999999849e+00 1.023624000000000089e+00 -8.016450000000000520e-01 9.067429999999999657e-01 7.742459999999999898e-01 -1.450259999999999883e-01 9.356000000000000427e-02 2.042569999999999997e+00 -1.683780999999999972e+00 1.667970000000000008e-01 3.550263000000000169e+00 -4.609090000000000131e-01 -3.438299999999999690e-02 1.552373999999999921e+00 7.020400000000000251e-02 -2.013482000000000216e+00 1.828546000000000005e+00 -1.122284000000000059e+00 1.510915999999999926e+00 7.702550000000000230e-01 -2.396018000000000203e+00 -1.288124000000000047e+00 1.584565999999999919e+00 7.730759999999999854e-01 -1.796942999999999957e+00 -1.294267000000000056e+00 6.799800000000000288e-01 -5.435680000000000511e-01 -4.265369999999999995e-01 1.660222000000000087e+00 -6.890509999999999691e-01 -1.777079999999999993e+00 -1.794367999999999963e+00 2.343379999999999797e+00 4.896079999999999877e-01 -9.049139999999999961e-01 1.260062999999999933e+00 -8.042599999999999749e-02 2.042950999999999961e+00 -1.735290999999999917e+00 -1.064947000000000088e+00 2.374760000000000204e+00 4.160080999999999918e+00 -7.592250000000000387e-01 -1.404654000000000069e+00 -1.140649999999999997e-01 -1.140204999999999913e+00 -9.247560000000000224e-01 -5.428490000000000260e-01
-3.125599999999999906e-02 -3.178637000000000157e+00 -1.241814999999999891e+00 1.027396999999999894e+00 1.920995999999999926e+00 -7.347320000000000517e-01 -1.041833999999999927e+00 -1.806840999999999919e+00 1.587415999999999938e+00 -5.422600000000000336e-02 5.675179999999999669e-01 -8.726519999999999833e-01 1.004026000000000085e+00 5.607389999999999874e-01 -1.451299999999999986e-02 1.053220000000000045e+00 2.497780000000000000e-01 -1.297228000000000048e+00 7.736140000000000239e-01 7.609399999999999498e-01 1.695891000000000037e+00 -5.077810000000000379e-01 -3.514300000000000063e-02 -3.329086000000000212e+00 1.129197999999999924e+00 1.054723000000000077e+00 4.516350000000000087e-01 -1.508820000000000050e+00 3.283309999999999840e-01 -3.997640000000000082e-01 -1.822078000000000086e+00 1.633550000000000002e-01 1.979508000000000045e+00 2.571919999999999762e-01 -1.529822000000000015e+00 -1.113739000000000035e+00 -1.452439000000000036e+00 4.081119999999999748e-01 7.063700000000000534e-02 5.630619999999999514e-01 3.765089999999999826e-01 -1.640913999999999984e+00 9.107030000000000403e-01 1.513630999999999949e+00 1.523411000000000071e+00 9.656090000000000506e-01 4.870559999999999889e-01 -9.111080000000000290e-01 4.742270000000000096e-01 -7.224960000000000271e-01 3.779210000000000069e-01 1.673260000000000025e-01 -1.603742000000000001e+00 -2.960849000000000064e+00 -8.505549999999999500e-01 9.037579999999999503e-01 6.406039999999999512e-01 -1.029878999999999989e+00 -3.025700000000000056e-01 1.148730000000000029e-01 -1.031457000000000068e+00 -2.913400000000000017e-02 2.485910000000000064e-01 5.352670000000000483e-01 -6.969880000000000519e-01 5.210860000000000491e-01 -5.888299999999999784e-02 -1.201117999999999908e+00 1.754259999999999931e+00 -1.240269999999999984e-01 -2.582999999999999741e-01 -7.335700000000000554e-02 1.324039999999999939e-01 1.028842000000000034e+00 -1.235049000000000063e+00 -9.600000000000000243e-04 5.416689999999999561e-01 2.779723000000000166e+00 1.000879000000000074e+00 2.595810000000000173e+00 1.083531000000000022e+00 1.064356000000000080e+00 -1.659005999999999981e+00 -6.827199999999999935e-02 9.125050000000000106e-01 1.446002999999999927e+00 -3.821299999999999697e-02 7.376099999999999324e-02 1.973969999999999891e-01 -6.233849999999999669e-01 -1.189939000000000080e+00 -1.512709999999999999e+00 3.009924999999999962e+00 1.313463000000000047e+00 -2.182932000000000095e+00 1.112729999999999969e-01 -1.522059999999999969e+00 -1.143529000000000018e+00 -1.722504999999999953e+00 -8.385920000000000041e-01 -1.864520000000000066e-01 -1.461790000000000034e-01 -8.431549999999999878e-01 6.801289999999999836e-01 1.231713999999999976e+00 -2.603799999999999865e-02 1.058626999999999985e+00 9.718020000000000547e-01 7.840979999999999617e-01 -7.986950000000000438e-01 9.367130000000000178e-01 -2.150948000000000082e+00 -1.818867000000000012e+00 -2.975376999999999938e+00 3.666070000000000162e-01 1.008577000000000057e+00 3.248953000000000202e+00 9.507999999999999785e-01 2.936840000000000006e-01 1.759600000000000053e-02 4.939169999999999949e-01 1.689467999999999970e+00 -3.223530000000000006e-01 -1.439308000000000032e+00 -2.018679000000000112e+00 -3.094799999999999773e-01 2.034307999999999783e+00 -5.449519999999999920e-01 -2.021164000000000183e+00 -1.801800000000000068e-01 4.386600000000000221e-02 -4.121650000000000036e-01 -2.117199999999999915e-01 7.938079999999999581e-01 2.851750000000000118e-01 -1.026702999999999921e+00 4.413491999999999749e+00 3.798582000000000125e+00 2.657345999999999986e+00 -9.208119999999999639e-01 -2.556334000000000106e+00 4.634200000000000125e-02 7.916940000000000088e-01 -1.000439000000000078e+00 1.387766999999999973e+00 -9.405130000000000434e-01 -4.334520000000000040e-01 -4.505719999999999725e-01 -2.280409000000000130e+00 -1.011182999999999943e+00 -1.055854999999999988e+00 6.692110000000000003e-01 1.852956000000000047e+00 -4.138049999999999784e-01 3.100890000000000035e-01 -8.425319999999999476e-01 -1.216326000000000018e+00 5.145389999999999686e-01 1.406600000000000038e-02
-6.833669999999999467e-01 2.988542999999999950e+00 -7.521899999999999420e-02 -5.116829999999999989e-01 -2.891589999999999994e-01 -4.534159999999999857e-01 -1.082020999999999900e+00 2.783900000000000041e+00 -2.389539999999999997e-01 1.391690000000000094e+00 9.425719999999999654e-01 1.876099999999999990e-02 5.430059999999999887e-01 -2.316960000000000131e-01 3.812169999999999725e-01 5.441019999999999746e-01 -6.028400000000000425e-01 -9.249200000000000477e-02 6.395619999999999639e-01 -6.644750000000000378e-01 2.818775000000000031e+00 1.260088000000000097e+00 -8.116440000000000321e-01 -6.657859999999999889e-01 -1.384203999999999990e+00 -7.518550000000000511e-01 -1.285822000000000020e+00 -8.926349999999999563e-01 -1.467031999999999892e+00 -1.562408000000000019e+00 -2.765744999999999898e+00 6.664480000000000404e-01 -5.548600000000000199e-01 1.080351000000000061e+00 -4.580509999999999859e-01 -1.004186000000000023e+00 -8.856799999999999395e-02 9.126609999999999445e-01 2.874559999999999893e-01 -1.910830000000000028e-01 1.496045999999999987e+00 -1.138482999999999912e+00 -2.151079999999999881e+00 -8.003580000000000139e-01 -4.817989999999999773e-01 3.441730000000000067e-01 2.668318999999999885e+00 2.545039000000000051e+00 -2.816984000000000155e+00 -1.963753000000000082e+00 9.561439999999999939e-01 -1.187890000000000057e-01 -2.002701000000000064e+00 7.643349999999999866e-01 -2.915290999999999855e+00 9.092000000000000082e-01 -2.439070000000000127e-01 2.466161000000000048e+00 -1.106899999999999967e-01 1.146878000000000064e+00 7.375869999999999926e-01 1.031571000000000016e+00 -1.373207999999999984e+00 1.375648999999999900e+00 -2.308711000000000180e+00 1.064966000000000079e+00 8.326869999999999550e-01 -1.353871999999999964e+00 -2.458854000000000095e+00 -9.846249999999999725e-01 -1.785930000000000017e+00 4.430970000000000186e-01 -3.848024000000000111e+00 -1.973959000000000019e+00 4.376072999999999880e+00 -7.545169999999999932e-01 -1.624934000000000101e+00 -3.514439999999999786e-01 1.261849999999999916e-01 4.050521999999999956e+00 5.236309999999999576e-01 -1.500812000000000035e+00 -5.351970000000000338e-01 4.016750000000000043e-01 -1.145715999999999957e+00 -5.347830000000000084e-01 1.545531999999999906e+00 -1.264313000000000020e+00 -2.009819999999999940e-01 1.813266000000000044e+00 1.728194000000000008e+00 3.944819999999999993e-01 5.477619999999999711e-01 2.070339999999999958e-01 1.922233999999999998e+00 -1.045825999999999922e+00 1.948199999999999932e-02 -7.338569999999999816e-01 -3.708719999999999795e-01 -4.376740000000000075e-01 4.580000000000000043e-02 1.316640000000000033e+00 1.648233000000000059e+00 -1.061118999999999923e+00 -1.633088000000000095e+00 -1.486615000000000020e+00 1.245981999999999923e+00 6.168470000000000342e-01 2.013224999999999820e+00 1.931828000000000101e+00 -2.122214000000000045e+00 2.604009000000000018e+00 8.085780000000000189e-01 -1.352489999999999970e+00 6.684949999999999504e-01 1.085803000000000074e+00 -8.869080000000000297e-01 1.019112000000000018e+00 -7.288759999999999684e-01 9.184609999999999719e-01 -2.578929999999999834e-01 9.625519999999999632e-01 2.370112999999999914e+00 -1.812132999999999994e+00 -1.185505999999999949e+00 1.086870000000000058e-01 8.765979999999999883e-01 1.784057999999999922e+00 -9.848740000000000272e-01 1.043798999999999921e+00 3.722199999999999814e-02 3.960049999999999959e-01 -1.518659999999999899e+00 -2.291868000000000016e+00 2.297238999999999809e+00 -9.695510000000000517e-01 -2.183930000000000038e-01 2.030593999999999788e+00 -1.203400999999999943e+00 1.296847000000000083e+00 6.618309999999999471e-01 -2.083790000000000087e-01 -5.859969999999999901e-01 -7.692090000000000316e-01 8.481330000000000258e-01 4.073599999999999999e-01 -1.304974999999999996e+00 1.958774000000000015e+00 2.655660000000000243e-01 -4.053179000000000087e+00 1.697885000000000089e+00 -1.505047999999999941e+00 -8.629189999999999916e-01 4.269339999999999802e-01 -2.255911999999999917e+00 -9.368800000000000461e-01 4.892616000000000298e+00 4.011049999999999893e-01 -2.046749000000000152e+00