-3.742009411099999738e+02
-3.694632478099999844e+02
-3.733612967899999830e+02
-3.691538585100000205e+02
-3.723417828799999825e+02
-3.710590725800000200e+02
-3.713601993999999991e+02
-3.685376254000000245e+02
-3.730234128100000248e+02
-3.698824219599999878e+02
-3.696473218799999927e+02
-3.727865007999999989e+02
-3.736823946900000237e+02
-3.696131786400000010e+02
-3.691923869199999899e+02
-3.730179958300000180e+02
-3.694966197900000111e+02
-3.742646501199999989e+02
-3.686475901499999850e+02
-3.733505503999999746e+02
-3.724749937799999771e+02
-3.732104449500000101e+02
-3.719181810800000108e+02
-3.729238450999999941e+02
-3.740236259999999788e+02
-3.707009776599999782e+02
-3.703828022600000054e+02
-3.693615812400000209e+02
-3.691119168600000080e+02
-3.741738563999999769e+02
-3.733261517500000082e+02
-3.701502522299999782e+02
-3.693063670000000229e+02
-3.720128544600000282e+02
-3.731542802100000245e+02
-3.692179366999999957e+02
-3.714059426399999779e+02
-3.719711242199999788e+02
-3.699832191400000170e+02
-3.693074914000000035e+02
-3.731817921300000194e+02
-3.733526336900000047e+02
-3.733988075799999820e+02
-3.698192149199999790e+02
-3.727424566099999765e+02
-3.699706869400000073e+02
-3.689525695599999722e+02
-3.727765600299999846e+02
-3.725170645000000036e+02
-3.722545930800000065e+02
