-1.474323000000000050e+00 -1.423920000000000075e+00 -1.246701000000000059e+00 -8.811649999999999761e-01 6.614109999999999712e-01 -6.025319999999999565e-01 7.760359999999999481e-01 -3.142369999999999886e-01 -4.384419999999999984e-01 -2.401540000000000064e-01 2.902980000000000005e-01 -1.574199999999999905e-02 -1.352384000000000031e+00 -1.425010000000000110e+00 -1.798821999999999921e+00 1.420636999999999928e+00 -1.979781000000000013e+00 -2.358010000000000106e-01 2.392133999999999983e+00 -1.077849999999999975e+00 -1.831685000000000008e+00 1.042119999999999991e-01 -4.661100000000000243e-01 7.006599999999999495e-01 -7.953329999999999567e-01 -4.636640000000000206e-01 1.640700000000000144e-02 -5.792260000000000186e-01 -4.057680000000000176e-01 4.281249999999999778e-01 3.697770000000000223e-01 -7.254059999999999953e-01 -9.985399999999999832e-01 3.215589999999999837e-01 -5.917660000000000142e-01 7.768739999999999535e-01 1.596444999999999892e+00 2.692399999999999793e-01 -3.499470000000000081e-01 -6.628849999999999465e-01 6.679760000000000142e-01 1.127966999999999942e+00 -1.557040000000000091e-01 3.953490000000000060e-01 2.059979999999999867e-01 -1.109310000000000018e+00 6.754729999999999901e-01 1.569419999999999982e-01 3.527429999999999732e-01 -1.951019000000000059e+00 5.076009999999999689e-01 -5.304020000000000401e-01 5.051379999999999759e-01 7.144270000000000342e-01 4.115510000000000002e-01 1.807420000000000138e-01 -4.657240000000000268e-01 1.935791000000000039e+00 1.037161999999999917e+00 2.534399999999999986e-01 7.044310000000000294e-01 -1.972820000000000129e-01 -1.096999000000000057e+00 -2.615000000000000102e-01 -7.513769999999999616e-01 8.591699999999999338e-02 -1.256032000000000037e+00 8.961209999999999454e-01 2.391099999999999892e-01 -1.871140000000000025e-01 6.001319999999999988e-01 1.268674000000000079e+00 -1.031069000000000013e+00 8.610750000000000348e-01 -6.392870000000000497e-01 3.760199999999999654e-02 -1.012030999999999903e+00 -5.611100000000000115e-02 8.749510000000000343e-01 -4.721679999999999766e-01 5.025319999999999787e-01 1.300280000000000102e+00 3.894130000000000091e-01 -2.920179999999999998e-01 -3.714069999999999871e-01 1.325811999999999991e+00 3.095180000000000153e-01 1.063299999999999940e-01 -5.132400000000000295e-01 -8.860770000000000035e-01 -1.952679999999999971e+00 -6.358949999999999880e-01 -4.376700000000000035e-02 -7.880420000000000202e-01 -8.059220000000000272e-01 1.735022999999999982e+00 -7.624859999999999971e-01 -5.430669999999999664e-01 5.509119999999999573e-01 -1.400284000000000084e+00 9.088640000000000052e-01 3.518979999999999886e-01 8.577749999999999542e-01 1.582699999999999940e-01 -1.864870000000000139e-01 4.246820000000000039e-01 -1.679910000000000014e-01 -7.869450000000000056e-01 -4.707169999999999965e-01 4.580400000000000027e-01 -1.833999999999999910e-03 4.811429999999999874e-01 -5.801370000000000138e-01 9.780800000000000605e-02 6.944010000000000460e-01 4.439480000000000093e-01 4.395890000000000075e-01 5.853300000000000169e-01 6.931969999999999521e-01 9.693920000000000314e-01 -1.304106999999999905e+00 7.084699999999999331e-02 1.166072999999999915e+00 6.537400000000000155e-02 2.052296999999999816e+00 -8.241579999999999462e-01 -1.299319999999999919e-01 -7.749129999999999630e-01 -1.609059999999999935e-01 -3.291910000000000114e-01 8.219300000000000495e-01 7.942679999999999740e-01 1.515970999999999957e+00 1.342210000000000070e-01 -1.243729999999999974e-01 1.629207999999999990e+00 5.635280000000000289e-01 -4.224399999999999683e-02 -9.329110000000000458e-01 2.218068999999999846e+00 -2.740119999999999778e-01
-2.794039999999999857e-01 5.520429999999999504e-01 1.468550000000000133e-01 5.573360000000000536e-01 1.525284000000000084e+00 1.173192000000000013e+00 -8.215600000000000680e-02 -8.542099999999999693e-02 -7.122290000000000010e-01 1.244536000000000087e+00 -8.227940000000000254e-01 -7.859660000000000535e-01 5.236420000000000519e-01 -1.088089000000000084e+00 1.474159999999999915e-01 -1.455203999999999942e+00 -1.393472000000000044e+00 9.338090000000000002e-01 9.060939999999999550e-01 1.134624000000000077e+00 1.041040000000000021e-01 -7.108130000000000281e-01 -1.810286999999999979e+00 -4.208390000000000186e-01 -1.895372000000000057e+00 1.089488999999999930e+00 4.068160000000000109e-01 -1.534830000000000083e-01 2.052840000000000220e+00 6.166120000000000489e-01 7.728239999999999554e-01 1.089460000000000012e-01 -1.012725000000000097e+00 6.742890000000000272e-01 -4.462139999999999995e-01 -4.401649999999999729e-01 1.552679999999999894e-01 -2.554816000000000198e+00 5.600800000000000223e-01 -4.130460000000000242e-01 -2.201325000000000198e+00 2.278600000000000070e-01 5.752819999999999601e-01 -2.595333000000000112e+00 -1.476510999999999907e+00 -2.470857000000000081e+00 1.064924999999999899e+00 3.065289999999999959e-01 -1.934015000000000040e+00 -1.781711000000000045e+00 8.858439999999999648e-01 1.378935000000000022e+00 -1.314200000000000035e+00 4.164799999999999752e-02 9.771379999999999511e-01 8.229130000000000056e-01 1.501304999999999890e+00 -1.726544000000000079e+00 1.638762000000000052e+00 -1.096881999999999913e+00 3.286220000000000252e-01 -2.565790999999999933e+00 -1.467792999999999903e+00 4.744413999999999909e+00 1.868738999999999928e+00 3.095200000000000173e-01 9.848780000000000312e-01 -7.306700000000000417e-01 -6.174370000000000136e-01 -2.699730000000000185e-01 -7.687329999999999997e-01 1.251292000000000071e+00 -1.414201000000000041e+00 7.212530000000000330e-01 -9.656879999999999908e-01 3.807670000000000221e-01 1.943947000000000092e+00 5.167499999999999871e-02 -1.718644000000000061e+00 3.651929999999999898e-01 -6.102950000000000319e-01 -1.939537999999999984e+00 -2.673494999999999955e+00 -1.061839999999999895e+00 9.289899999999999824e-01 5.228025999999999840e+00 1.921591000000000049e+00 -2.705069999999999975e-01 2.426129999999999953e-01 -1.842076999999999964e+00 -3.811729999999999841e-01 1.308797999999999906e+00 -2.548137000000000096e+00 7.075090000000000545e-01 1.889379999999999948e-01 1.704320000000000002e-01 -1.912379999999999913e-01 -2.365873999999999810e+00 1.672611999999999988e+00 7.529280000000000417e-01 -9.260800000000000143e-01 1.838069999999999982e-01 -1.655494000000000021e+00 1.394557000000000047e+00 -5.466370000000000395e-01 -7.162530000000000285e-01 5.259460000000000246e-01 1.282499999999999973e+00 -1.902469999999999994e-01 -1.153280000000000083e+00 3.547939999999999983e-01 3.002943000000000140e+00 -9.220089999999999675e-01 7.532839999999999536e-01 -6.232529999999999459e-01 1.842375000000000096e+00 -1.312790000000000068e-01 1.533058999999999950e+00 5.845089999999999453e-01 -1.171597000000000000e+00 -7.389700000000000157e-01 1.395410999999999957e+00 5.527410000000000379e-01 1.082308000000000048e+00 -1.118413000000000102e+00 5.325379999999999558e-01 -1.465621999999999980e+00 -5.937590000000000368e-01 1.660044000000000075e+00 6.552909999999999568e-01 -5.216799999999999909e-02 -6.915430000000000188e-01 8.104599999999999582e-01 -9.291650000000000187e-01 -9.148760000000000225e-01 -2.454800999999999789e+00 2.051514000000000060e+00 -4.526999999999999774e-02 1.473295000000000021e+00 1.241455999999999893e+00 8.108880000000000532e-01
-6.217600000000000210e-02 -6.342480000000000340e-01 2.278824000000000183e+00 1.460440000000000071e-01 1.312775999999999943e+00 1.140984999999999916e+00 5.921499999999999542e-01 1.452474000000000043e+00 -1.349313999999999902e+00 -7.349569999999999714e-01 5.297799999999999732e-02 -2.747140000000000137e-01 6.063979999999999926e-01 6.651380000000000070e-01 -7.336049999999999516e-01 5.155799999999999966e-02 -1.731010000000000049e-01 -9.025900000000000589e-02 -5.642530000000000046e-01 -1.696090000000000098e-01 -7.832719999999999683e-01 -2.693260000000000098e-01 7.792470000000000230e-01 6.356230000000000491e-01 -1.697039999999999937e-01 3.467575000000000074e+00 -4.000630000000000019e-01 -8.473540000000000516e-01 -1.355406000000000111e+00 -3.758290000000000242e-01 -6.203790000000000138e-01 -1.144522000000000039e+00 5.741469999999999629e-01 -4.532470000000000110e-01 1.298170000000000046e+00 1.273152000000000061e+00 -2.717160000000000131e-01 -8.971409999999999663e-01 9.106250000000000178e-01 -1.037255999999999956e+00 -7.990000000000000140e-04 -3.149989999999999735e-01 3.896540000000000004e-01 9.966620000000000479e-01 7.200239999999999974e-01 9.129999999999999661e-04 -4.022899999999999809e-01 3.101320000000000188e-01 -6.812850000000000295e-01 -6.496140000000000247e-01 -6.161489999999999467e-01 -9.323029999999999928e-01 3.363010000000000166e-01 -2.235389999999999877e-01 -5.679239999999999844e-01 1.682527000000000106e+00 -3.071929999999999938e-01 -5.904709999999999681e-01 -1.499548000000000103e+00 2.893439999999999901e-01 -6.713350000000000151e-01 2.065329999999999944e-01 -1.454434000000000005e+00 2.653329999999999855e-01 -1.285765000000000047e+00 -4.031810000000000116e-01 2.597400000000000056e-02 1.435241999999999907e+00 3.013810000000000100e-01 -2.660899999999999932e-01 -5.785500000000000087e-01 3.224770000000000136e-01 -1.082619999999999916e+00 -9.992499999999999716e-01 -2.162630000000000108e-01 1.206396999999999942e+00 -5.691969999999999530e-01 9.792710000000000026e-01 -5.584249999999999492e-01 -2.843849999999999989e-01 -1.617400000000000088e-02 -1.307160000000000100e+00 1.394809999999999939e-01 -2.383570000000000133e-01 -2.807749999999999968e-01 -4.139619999999999966e-01 8.446690000000000031e-01 8.797939999999999650e-01 -2.496819999999999873e-01 -1.267900000000000138e-01 2.030909999999999993e+00 -8.652039999999999731e-01 -9.108779999999999655e-01 9.808289999999999509e-01 3.118000000000000112e-03 -3.078449999999999798e-01 6.068500000000000005e-01 2.773379999999999734e-01 4.249189999999999912e-01 5.235419999999999519e-01 7.750789999999999624e-01 -5.669920000000000515e-01 6.797250000000000236e-01 2.165620999999999796e+00 -5.608779999999999877e-01 2.157449999999999868e+00 1.265377999999999892e+00 -2.092222000000000026e+00 1.348389000000000060e+00 3.510300000000000087e-01 3.765890000000000071e-01 -1.872109999999999885e-01 -1.440898000000000012e+00 -1.919669999999999987e+00 1.414277000000000006e+00 -5.549300000000000066e-02 2.190419999999999867e-01 -5.571920000000000206e-01 -4.564000000000000001e-02 -1.757900000000000088e-02 2.800150000000000139e-01 8.817669999999999675e-01 -2.193970000000000087e-01 -6.100459999999999772e-01 -3.503886000000000056e+00 3.103580000000000227e-01 5.401500000000000051e-02 -7.740799999999999903e-01 -6.060440000000000271e-01 5.253499999999999837e-02 7.671289999999999498e-01 1.444614000000000065e+00 -5.777600000000000097e-02 -1.098084000000000060e+00 -1.590759999999999952e-01 2.125839999999999952e-01 -1.112624999999999975e+00 8.871229999999999949e-01 -1.124354999999999993e+00 -1.085900000000000060e-01 1.041417999999999955e+00
1.882484000000000046e+00 -2.706078999999999901e+00 1.235918000000000072e+00 -9.993459999999999566e-01 1.842640000000000111e-01 -8.017800000000000482e-01 1.239878000000000036e+00 -3.469700000000000006e-01 9.198509999999999742e-01 2.380609999999999948e-01 3.353394000000000208e+00 -8.960799999999999321e-02 -1.342359000000000080e+00 4.213959999999999928e-01 -1.331309000000000076e+00 5.112609999999999655e-01 2.320929999999999938e-01 2.227008999999999794e+00 -1.858020000000000005e+00 -1.499830999999999914e+00 -5.826700000000000212e-01 -4.553679999999999950e-01 5.305520000000000236e-01 8.984590000000000076e-01 1.085407999999999928e+00 1.081542000000000003e+00 -1.052972000000000019e+00 9.586200000000000276e-01 8.926629999999999843e-01 -5.368119999999999559e-01 1.648616999999999999e+00 -1.121906999999999988e+00 6.440270000000000161e-01 -5.096410000000000107e-01 -1.060435999999999934e+00 -6.582000000000000177e-03 -1.940480999999999900e+00 1.445613999999999955e+00 -1.774866999999999972e+00 -3.276359999999999828e-01 8.604799999999999949e-02 -1.553339999999999999e-01 -6.840330000000000021e-01 -8.914560000000000262e-01 6.401459999999999928e-01 6.074899999999999745e-02 -2.545119999999999827e+00 -2.793030000000000235e-01 1.625890000000000057e+00 -1.536160000000000025e-01 -3.565920000000000201e-01 -7.974529999999999674e-01 -3.543754999999999988e+00 -3.766829999999999901e-01 5.097479999999999789e-01 3.044941000000000120e+00 4.785110000000000197e-01 3.600479999999999792e-01 6.125129999999999741e-01 -6.282450000000000534e-01 -1.882530000000000037e-01 -3.873902999999999874e+00 8.288689999999999669e-01 -5.582859999999999490e-01 -1.543611999999999984e+00 5.005460000000000464e-01 1.781649999999999956e+00 -1.420115000000000016e+00 -1.788969000000000031e+00 6.817860000000000031e-01 -2.508176999999999879e+00 1.972859999999999892e-01 -1.015357000000000065e+00 -1.761255999999999933e+00 -7.676410000000000178e-01 7.652879999999999683e-01 3.405015999999999821e+00 5.692469999999999475e-01 -7.377730000000000121e-01 1.111283000000000021e+00 7.898920000000000385e-01 1.826230000000000075e-01 3.695519999999999916e-01 5.852910000000000057e-01 -1.090319000000000038e+00 -2.825940000000000119e-01 2.142514999999999947e+00 -8.521539999999999671e-01 2.626679000000000208e+00 4.983199999999999852e-01 2.603209000000000106e+00 -3.261839999999999740e-01 -1.386670000000000125e-01 -1.602262999999999993e+00 1.239787999999999890e+00 2.499340000000000117e+00 -5.368399999999999839e-01 1.247339999999999893e+00 3.463530000000000220e-01 -6.680220000000000047e-01 7.110009999999999941e-01 -2.063580000000000136e-01 4.258500000000000063e-01 3.414107000000000003e+00 8.111100000000000254e-02 2.059020000000000017e-01 1.930768000000000040e+00 3.306000000000000050e-01 3.641785000000000050e+00 3.078136000000000205e+00 -9.726380000000000026e-01 1.270895000000000108e+00 -3.256555000000000089e+00 4.130000000000000338e-02 3.242959999999999732e-01 -2.869240000000000124e-01 -1.879631000000000052e+00 -5.130099999999999938e-02 -2.589940000000000020e-01 -8.015899999999999415e-02 -1.967116000000000087e+00 -5.038500000000000201e-01 2.356250000000000011e-01 -3.899935000000000151e+00 7.686199999999999699e-01 1.113391000000000020e+00 1.032601000000000102e+00 -1.336130999999999958e+00 -5.907499999999999973e-01 -4.142419999999999991e-01 8.385320000000000551e-01 -1.056097000000000063e+00 -5.173290000000000388e-01 1.266925000000000079e+00 -1.239141000000000048e+00 4.058320000000000261e-01 -2.293909000000000198e+00 -3.905520000000000103e-01 -4.289540000000000020e-01 -3.713929999999999731e-01 -7.202479999999999993e-01
8.204999999999999793e-02 -1.064673999999999898e+00 6.395170000000000021e-01 1.902160999999999991e+00 1.670503000000000071e+00 -5.833190000000000319e-01 7.631769999999999943e-01 6.492959999999999843e-01 2.237103999999999981e+00 -4.068499999999999894e-02 -4.554489999999999927e-01 -1.264161000000000090e+00 1.041668000000000038e+00 1.198980000000000046e-01 3.538020000000000054e-01 1.548187999999999898e+00 1.207594999999999974e+00 4.557749999999999857e-01 4.607120000000000104e-01 -1.063455000000000039e+00 -9.695219999999999949e-01 6.329909999999999703e-01 2.759579999999999811e-01 2.388699999999999851e-02 -8.173089999999999522e-01 -6.349829999999999641e-01 -7.656180000000000208e-01 -2.061780999999999864e+00 1.328397000000000050e+00 3.309659999999999824e-01 1.575897000000000103e+00 -7.386329999999999840e-01 -7.787749999999999950e-01 1.152341999999999977e+00 -1.284173000000000009e+00 -2.479601999999999862e+00 1.080073000000000061e+00 5.353580000000000005e-01 1.351479999999999904e-01 -7.218299999999999716e-02 -5.059230000000000116e-01 1.370088999999999890e+00 -3.642600000000000005e-02 2.309070000000000011e-01 7.221490000000000409e-01 -5.907300000000000051e-02 -1.249390000000000001e+00 -7.126989999999999714e-01 3.148600000000000010e-02 -7.726189999999999447e-01 1.112187000000000037e+00 -8.179710000000000036e-01 1.005709999999999937e-01 1.000400000000000039e-01 1.645969999999999933e-01 7.035240000000000382e-01 8.685589999999999700e-01 -3.970758000000000010e+00 1.612948000000000048e+00 5.646440000000000348e-01 5.852549999999999697e-01 5.470030000000000170e-01 -1.273741000000000012e+00 -2.272921999999999887e+00 1.723066999999999904e+00 5.465449999999999475e-01 -2.142449999999999910e-01 1.823563000000000045e+00 -2.744730000000000225e-01 -1.162703000000000042e+00 -2.641919999999999824e-01 9.376740000000000075e-01 5.006500000000000394e-01 3.191840000000000233e-01 -8.611950000000000438e-01 2.795422999999999991e+00 -2.382242000000000193e+00 -3.084100000000000175e-01 -6.409010000000000540e-01 -2.254750000000000087e-01 -1.324797000000000002e+00 -1.127670000000000061e-01 2.759342000000000183e+00 -6.623660000000000103e-01 -1.873598000000000097e+00 1.399696999999999969e+00 5.425079999999999902e-01 -3.801240000000000174e-01 1.548818999999999946e+00 -7.412410000000000387e-01 -5.743920000000000137e-01 -2.056346000000000007e+00 -2.350839999999999874e-01 1.325650999999999913e+00 -2.007461000000000162e+00 2.460610000000000019e-01 -7.761500000000000066e-01 -1.661319999999999908e+00 4.798270000000000035e-01 2.141645000000000021e+00 -1.165219999999999922e+00 -4.914410000000000167e-01 -6.667140000000000288e-01 -4.639710000000000223e-01 -9.269380000000000397e-01 4.784909999999999997e-01 6.568100000000000327e-02 -5.325649999999999551e-01 -1.069950000000000068e-01 2.150300000000000128e-02 -1.952419999999999989e-01 -1.028040000000000065e+00 -2.254938999999999805e+00 1.147968000000000099e+00 5.414520000000000444e-01 -1.338306999999999913e+00 -4.844550000000000245e-01 7.967870000000000230e-01 4.815999999999999968e-03 8.542450000000000321e-01 1.065301000000000053e+00 -1.340059999999999862e-01 7.672700000000000353e-02 -9.383209999999999607e-01 1.304032000000000080e+00 2.710850000000000204e-01 -1.170501999999999931e+00 -8.864880000000000537e-01 -2.735219999999999874e-01 -5.506469999999999976e-01 -8.284190000000000165e-01 1.874929999999999986e+00 9.026539999999999564e-01 8.293930000000000469e-01 2.003600000000000103e-01 2.424350000000000116e-01 1.431626000000000065e+00 6.944599999999999385e-02 -1.465878000000000014e+00 1.225003000000000064e+00 -2.207800000000000040e-02
1.586864000000000052e+00 -3.519590000000000218e-01 1.380729000000000095e+00 -1.741268999999999956e+00 -1.978798999999999975e+00 6.636910000000000309e-01 -7.423319999999999919e-01 1.961993000000000098e+00 6.556300000000000461e-01 -1.128063999999999956e+00 3.238354999999999873e+00 7.419700000000000184e-01 -7.512419999999999654e-01 6.725769999999999804e-01 -1.277446000000000081e+00 1.220569999999999988e-01 -1.312953000000000037e+00 -1.046180000000000027e-01 5.693430000000000435e-01 -2.556220000000000159e-01 1.349382999999999999e+00 -1.702611000000000097e+00 -3.384429999999999938e-01 4.930089999999999750e-01 -1.589720000000000022e+00 7.600500000000000311e-02 1.814888999999999974e+00 -8.070850000000000524e-01 -3.097059999999999813e-01 -2.986050000000000093e-01 -1.543990000000000085e-01 -1.683035999999999976e+00 8.233979999999999633e-01 -7.069370000000000376e-01 -1.364929999999999977e+00 2.337940000000000018e-01 -1.357256000000000018e+00 5.740349999999999620e-01 -1.369800000000000011e-02 -1.512880000000000003e+00 -6.365899999999999892e-01 -2.930579999999999852e-01 -3.252050000000000218e-01 -1.117674999999999974e+00 -1.075174999999999992e+00 -2.833110000000000017e+00 2.370560999999999918e+00 -8.671269999999999811e-01 -4.110269999999999757e-01 1.230822000000000083e+00 -1.789223999999999926e+00 -5.868799999999999711e-02 -1.302445000000000075e+00 4.706830000000000180e-01 -1.356259999999999966e-01 6.085070000000000201e-01 -2.106503000000000014e+00 -2.982685000000000031e+00 9.672159999999999647e-01 1.569020000000000137e-01 -8.535279999999999534e-01 4.144300000000000067e-02 -1.422700999999999993e+00 1.305981999999999976e+00 5.869000000000000085e-03 1.080845000000000056e+00 5.026969999999999494e-01 -2.331920000000000104e-01 8.985549999999999926e-01 1.072368999999999906e+00 -5.854439999999999644e-01 -1.336745999999999990e+00 1.917027999999999954e+00 -1.932482999999999951e+00 8.401680000000000259e-01 3.785180000000000211e-01 -4.547939999999999761e-01 3.732070000000000110e-01 7.654849999999999710e-01 -1.760143999999999931e+00 1.055940000000000101e+00 1.791595999999999966e+00 1.455000000000000043e-02 -1.028974999999999973e+00 8.298609999999999598e-01 -7.154899999999999594e-01 1.420750000000000068e-01 -9.638210000000000388e-01 8.162979999999999681e-01 -6.451810000000000045e-01 -1.172655000000000003e+00 1.394899999999999959e-02 -3.966259999999999786e-01 2.042288999999999799e+00 -1.457551999999999959e+00 2.915510000000000046e-01 3.622600000000000264e-01 1.388881000000000032e+00 -2.643013999999999974e+00 8.550759999999999472e-01 -1.077450999999999937e+00 -6.697760000000000380e-01 2.278538999999999870e+00 1.127690999999999999e+00 1.884185999999999916e+00 -5.546670000000000211e-01 3.417300000000000199e-02 -1.092438000000000020e+00 4.821679999999999855e-01 -3.430487999999999982e+00 -1.076939999999999981e-01 2.988106000000000151e+00 4.567240000000000189e-01 -4.481959999999999833e-01 -2.147350000000000092e-01 2.598699999999999968e-02 8.308969999999999967e-01 -3.738299999999999956e-02 3.083389999999999742e-01 6.912019999999999831e-01 7.411870000000000402e-01 2.123311000000000170e+00 -2.109479999999999966e-01 -1.689063999999999899e+00 2.390807000000000127e+00 9.866999999999999382e-02 8.711489999999999512e-01 2.071642000000000206e+00 -3.135740000000000194e-01 1.143863999999999992e+00 1.318313999999999986e+00 1.009422000000000041e+00 3.394229000000000163e+00 -1.226990000000000025e+00 -6.787840000000000540e-01 -1.304800000000000126e-01 -1.191292000000000018e+00 5.366950000000000331e-01 -1.444196999999999953e+00 8.794269999999999587e-01 3.026130000000000209e-01
6.532799999999999718e-01 6.475149999999999517e-01 1.797854000000000063e+00 1.602967000000000031e+00 -5.965960000000000152e-01 -4.796130000000000115e-01 2.830880000000000063e-01 6.525100000000000344e-01 1.828569999999999918e-01 3.156871999999999900e+00 -3.859659999999999758e-01 -4.013559999999999905e-01 1.095304000000000055e+00 -1.564180000000000015e-01 -1.042456999999999967e+00 -5.195859999999999923e-01 -1.441132999999999997e+00 4.648360000000000269e-01 8.157109999999999639e-01 1.211745999999999990e+00 -4.743350000000000066e-01 1.649146000000000001e+00 -8.778820000000000512e-01 2.129800000000000026e-01 -1.382689999999999975e+00 -1.266278999999999932e+00 -4.436519999999999908e-01 1.640991000000000088e+00 -2.492850000000000066e-01 6.633200000000000207e-01 3.147789999999999755e-01 -8.651999999999999691e-01 1.438979000000000008e+00 -1.220388999999999946e+00 -1.628454000000000068e+00 -2.232263000000000108e+00 3.246200000000000196e-01 -2.757240000000000246e-01 4.518400000000000194e-02 1.659202999999999983e+00 6.091229999999999700e-01 -1.529082000000000052e+00 5.510199999999999820e-02 -5.304320000000000146e-01 -1.537242999999999915e+00 1.146122000000000085e+00 -1.664960000000000051e-01 -9.072120000000000184e-01 1.788964999999999916e+00 -1.229973999999999901e+00 1.953969999999999874e-01 -9.128230000000000510e-01 1.686787999999999954e+00 8.932400000000000062e-02 -3.248600000000000099e-02 -3.788909999999999778e-01 -2.946550000000000002e-01 4.338569999999999927e-01 5.599589999999999845e-01 9.849959999999999827e-01 -1.322029999999999872e-01 -2.993720000000000270e-01 6.558079999999999465e-01 -2.903210000000000068e+00 -6.985700000000000243e-01 1.528519999999999879e-01 3.196999999999999842e-02 -8.498700000000000143e-01 -1.224190000000000000e-01 5.817059999999999453e-01 -3.776143999999999945e+00 -2.179200000000000026e-01 -6.525290000000000257e-01 1.220579999999999998e+00 -5.871030000000000415e-01 -1.389685999999999977e+00 2.224119999999999986e-01 1.069404999999999939e+00 -1.801230000000000109e+00 -1.764877000000000029e+00 -1.505879999999999996e-01 -1.189953000000000038e+00 9.458659999999999846e-01 -2.247281999999999780e+00 -7.918799999999999450e-02 2.492077000000000098e+00 9.810499999999999776e-01 -2.724679999999999880e-01 -2.044524000000000008e+00 9.830489999999999506e-01 2.450990000000000113e-01 -1.015471000000000013e+00 -1.186676999999999982e+00 -1.375051000000000023e+00 1.917580000000000118e-01 3.088810000000000167e-01 1.004987999999999992e+00 -1.003630999999999940e+00 -7.730939999999999479e-01 -6.202099999999999974e-02 2.566412999999999833e+00 -2.770839999999999970e-01 -8.736260000000000137e-01 2.117799999999999905e+00 3.032079999999999775e-01 -1.176063999999999998e+00 -7.733529999999999571e-01 -5.760079999999999645e-01 -3.609419999999999851e-01 -6.442750000000000421e-01 2.629000000000000226e-01 -1.559334999999999916e+00 7.113690000000000291e-01 2.168865999999999961e+00 -3.772641999999999829e+00 2.028229000000000060e+00 4.716259999999999897e-01 1.000609999999999972e-01 -8.481159999999999810e-01 -9.501600000000000046e-01 2.259129000000000165e+00 9.430020000000000069e-01 2.570300000000000015e-02 1.251460999999999935e+00 1.188833000000000029e+00 -1.310542000000000096e+00 -2.318944000000000116e+00 7.513410000000000366e-01 3.446049999999999947e-01 1.229932999999999943e+00 7.020969999999999711e-01 2.501363000000000003e+00 1.799199999999999910e+00 1.042149999999999910e+00 1.035466999999999915e+00 -1.519948999999999995e+00 -4.048200000000000132e-01 -5.006979999999999764e-01 3.834580000000000211e-01 1.680185000000000040e+00 9.009369999999999878e-01
8.423650000000000304e-01 7.242509999999999781e-01 -7.967000000000000470e-02 -1.760663000000000089e+00 6.516380000000000505e-01 2.000969999999999971e-01 5.630100000000000104e-01 1.487182999999999922e+00 1.974750000000000116e-01 7.625920000000000476e-01 1.367923999999999918e+00 -5.227899999999999908e-02 -1.974706999999999990e+00 4.709559999999999858e-01 9.305419999999999803e-01 5.842850000000000543e-01 -2.371596999999999955e+00 8.425899999999999501e-01 -3.047803000000000040e+00 -9.064269999999999827e-01 -4.707009999999999805e-01 1.523852999999999902e+00 -3.190020000000000078e-01 -1.415156999999999998e+00 -4.071919999999999984e-01 -2.328559999999999963e+00 -5.102166999999999675e+00 -1.207408000000000037e+00 2.160413999999999835e+00 4.900390000000000024e-01 6.294469999999999787e-01 -1.548534999999999995e+00 -1.700466000000000033e+00 4.316809999999999814e-01 -8.099239999999999773e-01 1.137539999999999996e+00 2.449768000000000168e+00 8.864889999999999715e-01 -8.968709999999999738e-01 1.949405999999999972e+00 4.326960000000000250e-01 2.485498999999999903e+00 -2.977810000000000179e-01 -2.106183999999999834e+00 7.070600000000000496e-02 -7.943369999999999598e-01 -1.382805000000000062e+00 5.952809999999999491e-01 5.808389999999999942e-01 -8.867519999999999847e-01 2.520299999999999763e-01 -1.388787999999999911e+00 -1.016677999999999971e+00 3.566724999999999923e+00 2.092944999999999833e+00 1.152687000000000017e+00 2.198611000000000093e+00 -6.018299999999999761e-01 -1.793654999999999999e+00 -1.027144000000000057e+00 1.917629000000000028e+00 -6.906639999999999446e-01 -1.148568999999999951e+00 -3.748839999999999950e-01 1.147572999999999954e+00 1.671224000000000043e+00 -9.027760000000000229e-01 1.134308000000000094e+00 -2.204714000000000063e+00 -1.153375999999999957e+00 6.737579999999999680e-01 -1.940760000000000041e+00 -1.656482999999999928e+00 1.805063000000000084e+00 1.091474000000000055e+00 -1.353996999999999895e+00 -8.293589999999999574e-01 -4.165869999999999851e-01 2.521224999999999827e+00 7.469670000000000476e-01 -2.733299999999999966e-02 -1.015371999999999941e+00 -5.932669999999999888e-01 -1.962679999999999980e-01 5.397739999999999760e-01 1.838483000000000089e+00 1.208995999999999960e+00 1.827270000000000005e-01 1.209983000000000031e+00 -1.975429999999999964e-01 -2.928129000000000204e+00 -2.051686000000000121e+00 -2.652639999999999998e-01 6.439500000000000224e-01 -3.114806000000000186e+00 -1.214321999999999901e+00 -2.301413000000000153e+00 1.348784999999999901e+00 -2.938250000000000028e-01 2.314246999999999943e+00 1.025938000000000017e+00 2.640840999999999994e+00 1.076529999999999987e-01 -2.095187000000000133e+00 -8.460330000000000350e-01 4.177449999999999775e-01 7.898830000000000018e-01 5.581230000000000357e-01 8.895999999999999394e-03 1.263047999999999949e+00 -6.040259999999999518e-01 1.012067999999999968e+00 9.812039999999999651e-01 -1.700899999999999981e-02 5.463740000000000263e-01 1.606354000000000060e+00 -9.264219999999999677e-01 3.396948000000000079e+00 3.061459999999999737e-01 2.772259999999999724e-01 -1.181907000000000041e+00 -2.660023999999999944e+00 -8.037450000000000427e-01 1.667575999999999947e+00 8.883199999999999985e-01 6.176139999999999963e-01 -9.581180000000000252e-01 -2.927569999999999895e-01 1.089598999999999984e+00 -1.993853000000000097e+00 -1.788718000000000030e+00 8.397339999999999804e-01 8.268229999999999746e-01 -3.127059999999999840e-01 1.423918999999999935e+00 -3.677579999999999738e-01 2.170872999999999831e+00 -7.928330000000000100e-01 -8.452530000000000321e-01 1.628366999999999898e+00 -1.746178999999999926e+00