1.568880000000000052e+00 8.393500000000000405e-01 8.145799999999999708e-01 3.050660000000000149e+00 1.655699999999999950e+00 3.211570000000000036e+00 4.531589999999999563e+00 2.729159999999999808e+00 5.985750000000000348e+00 3.203489999999999949e+00 3.608680000000000110e+00 6.024800000000000155e-01 4.726420000000000066e+00 4.586420000000000385e+00 2.595479999999999787e+00 3.864999999999999686e-02 5.295320000000000249e+00 5.955370000000000275e+00 4.478790000000000049e+00 6.243739999999999846e+00 3.970099999999999740e-01 3.749999999999999861e-03 7.216070000000000206e+00 3.244889999999999830e+00 1.407469999999999999e+00 8.018570000000000420e+00 5.689899999999999736e+00 4.648279999999999745e+00 8.342600000000000016e-01 7.258400000000000407e-01 7.839999999999999747e-03 1.647839999999999971e+00 3.289569999999999883e+00 1.481440000000000090e+00 2.740880000000000205e+00 5.847120000000000317e+00 3.248999999999999805e-02 3.468020000000000103e+00 6.886100000000000554e-01 1.570990000000000109e+00 4.602990000000000137e+00 3.236330000000000151e+00 2.997590000000000199e+00 5.511660000000000004e+00 5.785009999999999764e+00 1.495940000000000047e+00 6.290259999999999962e+00 6.307000000000000384e-01 3.041349999999999998e+00 7.077340000000000408e+00 3.179910000000000014e+00 -1.565090000000000092e+00 8.017950000000000799e+00 5.866920000000000357e+00 4.769140000000000157e+00 4.037460000000000271e+00 3.801470000000000127e+00 7.588000000000000300e-02 6.019000000000000045e-02 1.748999999999999860e-02 -6.672999999999999765e-02 8.903190000000000381e+00 2.666329999999999867e+00 2.992589999999999861e+00 1.858230000000000048e+00 5.166570000000000107e+00 1.523209999999999953e+00 2.697090000000000209e+00 8.301000000000000045e-02 3.078370000000000051e+00 3.504519999999999857e+00 2.531680000000000152e+00 -1.636060000000000070e+00 4.541879999999999917e+00 5.480730000000000324e+00 1.356270000000000087e+00 7.999080000000000190e+00 7.635629999999999917e+00 -1.555549999999999988e+00 6.433309999999999640e+00 2.414379999999999971e+00 -1.262300000000000089e-01 7.076950000000000074e+00 5.157930000000000348e+00 1.539090000000000069e+00 8.004960000000000520e+00 1.274700000000000000e-01 3.105379999999999807e+00 8.929019999999999513e+00 2.604249999999999954e+00 -1.626270000000000104e+00 9.796939999999999316e+00 5.252600000000000158e+00 4.651069999999999816e+00 2.606079999999999952e+00 1.160899999999999987e-01 5.900999999999999995e-02 3.529549999999999965e+00 2.599070000000000213e+00 1.321450000000000014e+00 4.419109999999999872e+00 5.186729999999999841e+00 -1.631999999999999895e+00 7.956019999999999648e+00 7.643889999999999851e+00 1.585790000000000033e+00 6.300430000000000419e+00 2.499730000000000008e+00 2.849450000000000038e+00 7.056890000000000107e+00 5.085259999999999891e+00
1.427610000000000046e+00 7.683299999999999574e-01 6.108799999999999786e-01 3.067029999999999923e+00 1.744720000000000049e+00 3.180880000000000152e+00 4.261379999999999946e+00 2.654599999999999849e+00 5.633539999999999992e+00 2.974740000000000162e+00 3.569440000000000168e+00 6.146200000000000552e-01 4.133370000000000211e+00 4.952890000000000015e+00 3.548589999999999911e+00 1.079500000000000043e-01 5.262480000000000047e+00 5.589109999999999800e+00 4.585370000000000168e+00 6.044290000000000163e+00 7.312600000000000211e-01 1.761300000000000088e-01 7.065389999999999837e+00 3.095549999999999802e+00 1.674660000000000037e+00 7.857249999999999623e+00 5.515189999999999593e+00 4.523769999999999847e+00 9.713600000000000012e-01 6.441500000000000004e-01 -2.050000000000000086e-02 1.676539999999999919e+00 3.110489999999999977e+00 1.496229999999999949e+00 2.650450000000000195e+00 5.650150000000000006e+00 1.260699999999999876e-01 3.536659999999999915e+00 8.001200000000000534e-01 1.295520000000000005e+00 4.525210000000000399e+00 3.288419999999999899e+00 3.059709999999999930e+00 5.456830000000000069e+00 5.888810000000000322e+00 1.558449999999999891e+00 6.191099999999999604e+00 6.482900000000000329e-01 2.966470000000000162e+00 7.165359999999999729e+00 3.028300000000000214e+00 -1.320950000000000069e+00 7.948800000000000310e+00 5.588530000000000442e+00 4.599820000000000242e+00 3.960459999999999869e+00 2.773859999999999992e+00 4.386110000000000397e+00 7.795810000000000350e+00 1.396799999999999986e-01 1.605210000000000026e+00 9.881299999999999528e-01 2.455369999999999830e+00 1.383059999999999956e+00 9.595039999999999125e+00 5.039380000000000415e+00 -8.122000000000000053e-02 5.339100000000000179e+00 7.361329999999999707e+00 2.981050000000000200e+00 3.469469999999999832e+00 2.480039999999999800e+00 -1.537900000000000045e+00 4.531670000000000087e+00 5.330300000000000260e+00 1.372270000000000101e+00 7.945999999999999730e+00 7.482249999999999623e+00 -1.322060000000000013e+00 6.200750000000000206e+00 2.409609999999999808e+00 1.244399999999999951e-01 6.968110000000000248e+00 4.781939999999999635e+00 1.507090000000000041e+00 7.828800000000000203e+00 7.548000000000000542e-02 3.018979999999999997e+00 8.751739999999999853e+00 2.516410000000000036e+00 -1.745000000000000107e+00 9.593569999999999709e+00 4.963960000000000150e+00 4.606749999999999901e+00 2.755149999999999988e+00 2.333800000000000041e-01 2.056300000000000072e-01 3.379449999999999843e+00 2.576560000000000183e+00 1.608899999999999997e+00 4.297860000000000014e+00 5.091820000000000235e+00 -1.566340000000000066e+00 8.014260000000000161e+00 7.471490000000000187e+00 1.641440000000000010e+00 6.250729999999999897e+00 2.529510000000000147e+00 3.145059999999999967e+00 7.022439999999999571e+00 4.831380000000000230e+00
1.635960000000000081e+00 9.884600000000000053e-01 6.170600000000000529e-01 3.043120000000000047e+00 1.784510000000000041e+00 3.197649999999999881e+00 4.668020000000000280e+00 2.650300000000000100e+00 5.938469999999999693e+00 3.062149999999999928e+00 3.556649999999999867e+00 6.359200000000000408e-01 4.468309999999999782e+00 4.721239999999999881e+00 2.423820000000000086e+00 -6.804999999999999938e-02 5.566250000000000142e+00 5.676440000000000374e+00 4.681309999999999860e+00 6.377510000000000012e+00 5.086500000000000465e-01 1.653999999999999915e-02 7.453549999999999898e+00 3.083219999999999850e+00 1.645969999999999933e+00 8.290699999999999292e+00 5.757780000000000342e+00 4.681919999999999860e+00 9.461300000000000265e-01 8.533800000000000274e-01 7.799999999999999642e-03 1.859250000000000069e+00 3.174889999999999990e+00 1.541430000000000078e+00 2.675580000000000069e+00 5.880130000000000301e+00 8.057999999999999885e-02 3.780879999999999797e+00 6.183199999999999807e-01 1.582140000000000102e+00 4.633549999999999613e+00 3.151780000000000026e+00 3.080550000000000122e+00 5.414880000000000138e+00 5.889249999999999652e+00 1.610549999999999926e+00 6.292469999999999786e+00 6.701399999999999579e-01 3.178199999999999914e+00 7.452720000000000233e+00 3.336829999999999963e+00 -1.509409999999999918e+00 8.377480000000000260e+00 5.663780000000000037e+00 4.667650000000000077e+00 4.130440000000000111e+00 3.615549999999999820e+00 -2.929310000000000080e+00 1.097761999999999993e+01 7.671450000000000102e+00 1.420830000000000037e+00 9.970599999999999463e-01 2.577310000000000212e+00 1.696460000000000079e+00 1.009721000000000046e+01 5.193810000000000038e+00 2.357000000000000067e-02 5.480789999999999829e+00 7.563220000000000276e+00 3.042769999999999975e+00 3.509100000000000108e+00 2.482310000000000016e+00 -1.464329999999999909e+00 4.407989999999999853e+00 5.345710000000000406e+00 1.630779999999999896e+00 8.086050000000000182e+00 7.656049999999999578e+00 -1.472890000000000033e+00 6.658210000000000406e+00 2.380399999999999849e+00 1.610000000000000042e-01 7.349639999999999951e+00 5.072779999999999845e+00 1.806969999999999965e+00 8.180979999999999919e+00 1.911299999999999943e-01 3.127489999999999881e+00 9.221790000000000376e+00 2.700610000000000177e+00 6.215999999999999998e-02 1.936050000000000049e+00 5.137929999999999886e+00 4.679579999999999629e+00 2.703260000000000218e+00 1.487799999999999956e-01 8.888999999999999679e-02 3.707120000000000193e+00 2.622700000000000031e+00 1.637019999999999920e+00 4.390810000000000102e+00 5.188629999999999853e+00 -1.555430000000000090e+00 8.246880000000000877e+00 7.627080000000000304e+00 1.625410000000000021e+00 6.442070000000000185e+00 2.591689999999999827e+00 3.236499999999999932e+00 7.315529999999999866e+00 5.265889999999999738e+00
1.512629999999999919e+00 8.593699999999999672e-01 6.792599999999999749e-01 2.938860000000000028e+00 1.835650000000000004e+00 3.225740000000000052e+00 4.538520000000000110e+00 2.608210000000000139e+00 5.812009999999999899e+00 2.944939999999999891e+00 3.563210000000000210e+00 5.729800000000000448e-01 4.437590000000000146e+00 4.663499999999999979e+00 2.455830000000000179e+00 -6.852999999999999370e-02 5.319930000000000270e+00 5.730509999999999771e+00 4.524230000000000196e+00 6.395410000000000039e+00 5.540100000000000025e-01 3.985999999999999960e-02 7.184129999999999683e+00 3.247090000000000032e+00 1.468059999999999921e+00 8.150969999999999160e+00 5.662189999999999834e+00 4.606489999999999974e+00 9.088800000000000212e-01 7.457200000000000495e-01 2.082000000000000170e-02 1.789290000000000047e+00 3.204889999999999795e+00 1.432690000000000019e+00 2.627899999999999903e+00 5.840709999999999624e+00 5.886000000000000260e-02 3.669470000000000010e+00 6.221600000000000463e-01 1.419580000000000064e+00 4.521709999999999674e+00 3.209410000000000096e+00 2.897240000000000038e+00 5.419719999999999871e+00 5.792159999999999975e+00 1.521630000000000038e+00 6.290329999999999977e+00 7.203699999999999548e-01 2.948420000000000041e+00 7.289220000000000255e+00 3.196720000000000006e+00 -1.525419999999999998e+00 8.052830000000000155e+00 5.785980000000000345e+00 4.477109999999999701e+00 4.035610000000000142e+00 3.695329999999999782e+00 5.951000000000000040e-02 9.100000000000000016e-04 2.399999999999999790e-03 -7.410999999999999532e-02 8.994429999999999481e+00 2.605049999999999866e+00 2.972649999999999793e+00 1.791390000000000038e+00 5.108380000000000365e+00 1.457840000000000025e+00 2.657820000000000071e+00 3.513000000000000150e-02 2.842270000000000074e+00 3.616899999999999782e+00 2.457269999999999843e+00 -1.566589999999999927e+00 4.462139999999999773e+00 5.361849999999999561e+00 1.351979999999999960e+00 8.007460000000000022e+00 7.565979999999999706e+00 4.377379999999999605e+00 6.509129999999999860e+00 2.398890000000000189e+00 4.272999999999999715e-02 7.183360000000000412e+00 5.103240000000000443e+00 1.551679999999999948e+00 8.142079999999999984e+00 7.609000000000000485e-02 4.469199999999999839e+00 1.008559999999999901e+00 2.590160000000000018e+00 -1.549039999999999973e+00 9.941000000000000725e+00 5.125250000000000306e+00 2.900599999999999845e+00 5.443439999999999834e+00 7.631149999999999878e+00 -1.940000000000000101e-03 3.595759999999999845e+00 2.508999999999999897e+00 1.467330000000000023e+00 4.496509999999999785e+00 5.195599999999999774e+00 8.074000000000000621e-02 5.508610000000000007e+00 2.445999999999999910e-02 1.501139999999999919e+00 6.337760000000000282e+00 2.561230000000000118e+00 2.953650000000000109e+00 7.105809999999999960e+00 5.138519999999999754e+00
1.520999999999999908e+00 8.854800000000000448e-01 6.361400000000000388e-01 2.966839999999999922e+00 1.763509999999999911e+00 3.109430000000000138e+00 4.278730000000000366e+00 2.630630000000000024e+00 5.754120000000000346e+00 3.012169999999999792e+00 3.526089999999999947e+00 6.351700000000000124e-01 4.274989999999999846e+00 4.518200000000000216e+00 2.930219999999999825e+00 -1.490400000000000058e-01 5.436250000000000249e+00 5.729499999999999815e+00 4.457010000000000360e+00 6.205079999999999707e+00 6.549700000000000522e-01 -1.053499999999999992e-01 7.038630000000000386e+00 3.137970000000000148e+00 1.291770000000000085e+00 8.022500000000000853e+00 5.621800000000000352e+00 4.464299999999999713e+00 9.033600000000000518e-01 6.215000000000000524e-01 -1.544000000000000060e-02 1.625359999999999916e+00 3.060470000000000024e+00 1.358130000000000059e+00 2.671660000000000146e+00 5.598290000000000433e+00 -1.238999999999999997e-02 3.541920000000000179e+00 6.045000000000000373e-01 1.508019999999999916e+00 4.429710000000000036e+00 3.076470000000000038e+00 2.785779999999999923e+00 5.358480000000000132e+00 5.633020000000000138e+00 1.440450000000000008e+00 6.200529999999999653e+00 6.109700000000000131e-01 2.864240000000000119e+00 7.093639999999999723e+00 3.126910000000000078e+00 -1.729079999999999950e+00 8.021549999999999514e+00 5.591580000000000439e+00 -8.107600000000000362e-01 3.959130000000000038e+00 3.825810000000000155e+00 -1.574910000000000032e+00 8.000310000000000699e+00 8.315000000000000169e-02 -4.161000000000000115e-02 8.816359999999999530e+00 2.519169999999999909e+00 2.845139999999999780e+00 1.794300000000000006e+00 4.964269999999999960e+00 1.534750000000000059e+00 2.691460000000000186e+00 3.361000000000000099e-02 2.905800000000000161e+00 3.517389999999999795e+00 2.447909999999999808e+00 -1.649250000000000105e+00 4.476490000000000080e+00 5.283179999999999765e+00 2.974930000000000074e+00 5.310670000000000002e+00 8.499999999999999526e-04 -1.628730000000000011e+00 6.296009999999999884e+00 2.500779999999999781e+00 -1.940999999999999948e-01 7.167699999999999960e+00 4.983710000000000306e+00 1.309760000000000035e+00 2.689309999999999867e+00 7.423680000000000057e+00 2.871989999999999821e+00 8.859260000000000801e+00 2.496999999999999886e+00 -1.659200000000000119e-01 1.862579999999999902e+00 4.951109999999999900e+00 2.794379999999999864e+00 5.364580000000000126e+00 7.472369999999999735e+00 1.248599999999999988e-01 3.388220000000000010e+00 2.421219999999999928e+00 1.263200000000000101e+00 4.463820000000000121e+00 4.960020000000000095e+00 -1.764860000000000095e+00 8.025339999999999918e+00 7.450750000000000206e+00 1.407929999999999904e+00 6.201299999999999812e+00 2.485689999999999955e+00 2.800149999999999917e+00 7.117219999999999658e+00 4.990199999999999747e+00
1.584829999999999961e+00 8.308499999999999774e-01 6.738399999999999945e-01 3.197080000000000144e+00 1.754650000000000043e+00 3.294999999999999929e+00 4.739989999999999704e+00 2.656070000000000153e+00 5.721650000000000347e+00 3.088989999999999903e+00 3.388490000000000002e+00 6.307899999999999618e-01 4.242250000000000298e+00 4.659089999999999954e+00 2.409429999999999961e+00 1.450100000000000000e-01 5.227000000000000313e+00 5.628160000000000274e+00 4.715160000000000018e+00 6.124019999999999797e+00 5.494700000000000140e-01 2.933499999999999996e-01 7.005349999999999966e+00 3.129900000000000126e+00 1.771109999999999962e+00 7.801680000000000170e+00 5.657289999999999708e+00 4.712189999999999657e+00 9.915399999999999769e-01 6.424600000000000311e-01 1.879699999999999982e-01 1.695859999999999923e+00 3.182409999999999961e+00 1.710769999999999902e+00 2.640350000000000197e+00 5.748490000000000322e+00 5.065000000000000058e-02 3.333040000000000003e+00 6.648399999999999865e-01 1.571749999999999980e+00 4.301260000000000083e+00 3.169680000000000053e+00 3.174669999999999881e+00 5.176580000000000403e+00 5.588230000000000253e+00 1.697100000000000053e+00 5.975600000000000023e+00 5.677299999999999569e-01 3.234329999999999927e+00 7.048329999999999984e+00 3.211069999999999869e+00 -1.298920000000000075e+00 7.901469999999999771e+00 5.709380000000000344e+00 -1.143969999999999931e+00 4.276460000000000150e+00 3.459740000000000038e+00 7.700999999999999512e-02 3.411999999999999755e-02 7.858999999999999320e-02 2.773900000000000254e-01 8.731669999999999376e+00 2.547280000000000211e+00 1.722969999999999891e+00 9.595200000000000173e+00 5.106729999999999769e+00 1.642500000000000071e-01 5.296700000000000408e+00 7.476449999999999818e+00 3.013869999999999827e+00 3.395430000000000170e+00 2.508830000000000116e+00 -1.414849999999999941e+00 4.340559999999999974e+00 5.217380000000000351e+00 3.198240000000000194e+00 5.210630000000000095e+00 1.006900000000000017e-01 -1.335609999999999964e+00 6.340930000000000177e+00 2.337889999999999802e+00 2.407900000000000040e-01 7.001219999999999999e+00 4.990039999999999587e+00 1.738140000000000018e+00 7.775030000000000108e+00 1.198099999999999998e-01 4.746089999999999698e+00 9.428400000000000114e-01 2.533760000000000012e+00 1.232700000000000046e-01 1.823760000000000048e+00 5.072020000000000195e+00 3.148489999999999789e+00 5.259949999999999903e+00 7.514129999999999754e+00 1.479800000000000004e-01 3.384399999999999853e+00 2.523019999999999818e+00 1.551919999999999966e+00 4.229529999999999568e+00 5.033109999999999751e+00 -1.387299999999999978e+00 7.718659999999999854e+00 7.535669999999999646e+00 1.816130000000000022e+00 6.004640000000000200e+00 2.559979999999999922e+00 3.301000000000000156e+00 6.864359999999999573e+00 5.054359999999999964e+00
1.575329999999999897e+00 8.692199999999999926e-01 6.619800000000000129e-01 2.991190000000000015e+00 1.762480000000000047e+00 3.170770000000000088e+00 4.341969999999999885e+00 2.597220000000000084e+00 5.768849999999999589e+00 2.986769999999999925e+00 3.535299999999999887e+00 5.757100000000000550e-01 4.334990000000000343e+00 4.668650000000000411e+00 2.458590000000000053e+00 -1.000999999999999980e-02 5.560190000000000410e+00 5.713659999999999961e+00 4.449620000000000353e+00 6.495330000000000048e+00 5.228000000000000425e-01 -1.282300000000000106e-01 7.300150000000000361e+00 3.168730000000000047e+00 1.338219999999999965e+00 8.158580000000000609e+00 5.596009999999999707e+00 4.525479999999999947e+00 9.598299999999999610e-01 7.678099999999999925e-01 -2.855999999999999858e-02 1.899100000000000010e+00 3.191250000000000142e+00 1.332459999999999978e+00 2.750010000000000066e+00 5.603170000000000428e+00 -5.621999999999999914e-02 3.590359999999999996e+00 6.049600000000000533e-01 1.402260000000000062e+00 4.486449999999999605e+00 3.143019999999999925e+00 2.850740000000000052e+00 5.443329999999999558e+00 5.768740000000000201e+00 1.425470000000000015e+00 6.321139999999999759e+00 6.747400000000000064e-01 2.963290000000000202e+00 7.287359999999999616e+00 3.156419999999999781e+00 -1.702239999999999975e+00 8.170329999999999870e+00 5.666820000000000412e+00 -1.280839999999999979e+00 4.553420000000000023e+00 3.705259999999999998e+00 -1.617680000000000007e+00 8.207119999999999749e+00 3.047000000000000056e-02 -1.090600000000000042e-01 9.101319999999999411e+00 2.631530000000000147e+00 1.244590000000000085e+00 9.982789999999999608e+00 5.074530000000000207e+00 1.531900000000000039e+00 2.684839999999999893e+00 8.425000000000000544e-02 2.866760000000000197e+00 3.557040000000000202e+00 2.454610000000000181e+00 -1.588640000000000052e+00 4.464190000000000325e+00 5.396200000000000330e+00 1.295649999999999968e+00 8.228540000000000632e+00 7.413759999999999906e+00 4.417790000000000106e+00 6.502629999999999910e+00 2.372339999999999893e+00 -1.415800000000000114e-01 7.236749999999999794e+00 5.080250000000000377e+00 3.109480000000000022e+00 1.851999999999999827e-02 5.219999999999999814e-03 2.969160000000000021e+00 9.134009999999999962e+00 2.587279999999999802e+00 -1.615199999999999969e-01 1.812359999999999971e+00 4.987370000000000303e+00 2.887869999999999937e+00 5.421920000000000073e+00 7.546660000000000146e+00 -3.889999999999999708e-02 3.535860000000000003e+00 2.397130000000000205e+00 1.383620000000000072e+00 4.618870000000000253e+00 5.083510000000000417e+00 -1.017900000000000055e-01 5.473250000000000171e+00 2.749999999999999840e-03 1.412870000000000070e+00 6.397899999999999920e+00 2.530330000000000190e+00 2.900650000000000173e+00 7.256780000000000008e+00 5.061029999999999696e+00
1.606409999999999894e+00 9.672100000000000142e-01 5.362299999999999844e-01 3.139419999999999877e+00 1.783330000000000082e+00 3.114189999999999792e+00 4.555690000000000239e+00 2.652940000000000076e+00 5.886610000000000120e+00 3.334830000000000183e+00 3.545119999999999827e+00 6.372799999999999576e-01 4.086909999999999599e+00 4.746109999999999829e+00 3.347049999999999859e+00 -2.428599999999999925e-01 5.504059999999999953e+00 5.820859999999999701e+00 4.545429999999999637e+00 6.168899999999999828e+00 8.409499999999999753e-01 -1.790499999999999869e-01 7.275019999999999598e+00 3.401780000000000026e+00 1.433140000000000081e+00 8.172710000000000363e+00 5.785120000000000040e+00 4.705530000000000435e+00 9.498600000000000376e-01 5.376199999999999868e-01 7.495000000000000273e-02 1.661189999999999944e+00 3.204990000000000006e+00 1.487209999999999921e+00 2.851240000000000219e+00 5.610850000000000115e+00 3.443000000000000227e-02 3.480309999999999793e+00 7.440099999999999492e-01 1.619830000000000103e+00 4.415770000000000195e+00 3.320749999999999869e+00 3.054650000000000087e+00 5.695020000000000415e+00 5.707970000000000432e+00 1.439589999999999925e+00 6.340399999999999814e+00 6.526399999999999979e-01 2.929310000000000080e+00 7.191139999999999866e+00 3.139460000000000139e+00 -1.638030000000000097e+00 8.011079999999999757e+00 5.708219999999999850e+00 -9.563700000000000534e-01 4.177410000000000068e+00 3.490629999999999900e+00 4.594490000000000407e+00 7.923969999999999736e+00 1.477000000000000014e-02 1.568300000000000027e+00 8.909599999999999742e-01 2.278459999999999930e+00 1.353029999999999955e+00 9.760640000000000427e+00 4.952469999999999928e+00 -7.811999999999999500e-02 5.619970000000000354e+00 7.624410000000000132e+00 3.144359999999999822e+00 3.593430000000000124e+00 2.471919999999999895e+00 -1.661759999999999904e+00 4.484479999999999578e+00 5.182859999999999800e+00 3.239380000000000148e+00 5.323739999999999917e+00 1.269500000000000073e-01 4.450059999999999683e+00 6.438600000000000101e+00 2.697970000000000201e+00 -1.795000000000000068e-02 7.251829999999999998e+00 5.169299999999999784e+00 1.394460000000000033e+00 2.772479999999999833e+00 7.528050000000000352e+00 4.718600000000000350e+00 9.848999999999999977e-01 2.660940000000000083e+00 -1.530550000000000077e+00 9.677680000000000504e+00 5.093840000000000146e+00 3.080000000000000071e+00 5.480059999999999931e+00 7.657230000000000203e+00 2.948799999999999755e-01 3.295809999999999906e+00 2.498149999999999871e+00 1.469309999999999894e+00 4.647739999999999760e+00 5.218300000000000161e+00 -4.068999999999999700e-02 5.217459999999999987e+00 2.833000000000000101e-02 1.308219999999999938e+00 6.347150000000000070e+00 2.715419999999999945e+00 2.912700000000000067e+00 7.269070000000000142e+00 5.099380000000000024e+00
1.644430000000000058e+00 8.982900000000000329e-01 4.573800000000000088e-01 3.126219999999999999e+00 1.804240000000000066e+00 3.122770000000000046e+00 4.512640000000000207e+00 2.809950000000000170e+00 5.805380000000000429e+00 3.144919999999999938e+00 3.597690000000000055e+00 5.750899999999999901e-01 4.319779999999999731e+00 5.005499999999999616e+00 3.121890000000000054e+00 2.722000000000000114e-02 5.457349999999999923e+00 5.708590000000000053e+00 4.745210000000000150e+00 6.369220000000000326e+00 5.053600000000000314e-01 -6.226000000000000284e-02 7.230170000000000208e+00 3.076270000000000060e+00 1.412870000000000070e+00 8.229390000000000427e+00 5.628199999999999648e+00 4.667329999999999757e+00 9.689200000000000035e-01 5.988400000000000389e-01 5.215999999999999803e-02 1.587399999999999922e+00 3.172390000000000043e+00 1.414709999999999912e+00 2.720019999999999882e+00 5.665650000000000297e+00 2.181099999999999983e-01 3.631629999999999914e+00 5.470899999999999652e-01 1.599080000000000057e+00 4.456520000000000259e+00 3.201890000000000125e+00 3.291580000000000172e+00 5.496299999999999741e+00 5.665339999999999598e+00 1.476169999999999982e+00 6.336630000000000429e+00 6.385800000000000365e-01 3.147800000000000153e+00 7.343799999999999883e+00 3.162690000000000001e+00 -1.452299999999999924e+00 8.312139999999999418e+00 5.655409999999999826e+00 -1.053290000000000060e+00 3.850779999999999870e+00 3.373670000000000169e+00 6.156010000000000204e+00 1.266400000000000026e-01 1.015299999999999953e-01 8.032999999999999863e-02 9.038100000000000023e+00 2.440069999999999961e+00 1.385850000000000026e+00 9.990349999999999397e+00 5.035099999999999909e+00 -4.057999999999999802e-02 5.404390000000000249e+00 7.381689999999999863e+00 3.129869999999999930e+00 3.752279999999999838e+00 2.535010000000000208e+00 -1.617629999999999901e+00 4.466190000000000104e+00 5.111979999999999968e+00 1.346570000000000045e+00 8.205550000000000566e+00 7.446180000000000021e+00 -1.546249999999999902e+00 6.598049999999999748e+00 2.496420000000000083e+00 -8.923000000000000376e-02 7.231340000000000323e+00 5.046820000000000306e+00 1.442150000000000043e+00 2.753379999999999939e+00 7.500589999999999868e+00 4.630550000000000388e+00 9.168600000000000083e-01 2.504010000000000069e+00 -1.726569999999999938e+00 9.991270000000000095e+00 5.138519999999999754e+00 4.720290000000000319e+00 2.939700000000000202e+00 8.329999999999999905e-02 3.188199999999999923e-01 3.248460000000000125e+00 2.448420000000000041e+00 1.543709999999999916e+00 4.554109999999999658e+00 5.199349999999999916e+00 -7.864999999999999769e-02 5.463659999999999961e+00 1.389999999999999916e-02 1.535099999999999909e+00 6.313259999999999650e+00 2.570600000000000218e+00 3.074930000000000163e+00 7.223200000000000287e+00 5.093849999999999767e+00
1.600410000000000110e+00 8.906500000000000528e-01 7.436500000000000332e-01 3.153820000000000068e+00 1.685670000000000002e+00 3.185890000000000111e+00 4.640119999999999578e+00 2.556789999999999896e+00 5.614239999999999675e+00 3.087639999999999940e+00 3.430419999999999803e+00 7.304199999999999582e-01 4.710919999999999774e+00 3.905860000000000110e+00 3.667600000000000193e+00 6.997000000000000441e-02 5.272380000000000067e+00 5.817779999999999951e+00 4.723029999999999617e+00 6.244399999999999729e+00 5.695099999999999607e-01 1.095200000000000062e-01 7.020389999999999908e+00 3.206510000000000193e+00 1.623669999999999947e+00 7.847360000000000113e+00 5.698170000000000179e+00 4.696799999999999642e+00 8.794499999999999540e-01 6.708100000000000174e-01 4.329999999999999648e-03 1.719470000000000054e+00 3.052389999999999937e+00 1.595169999999999977e+00 2.593379999999999797e+00 5.598959999999999937e+00 1.180400000000000060e-01 3.469899999999999984e+00 6.802700000000000413e-01 1.607499999999999929e+00 4.258309999999999818e+00 3.244240000000000013e+00 3.036810000000000009e+00 5.304179999999999673e+00 5.733220000000000205e+00 1.652249999999999996e+00 6.140930000000000000e+00 6.204800000000000315e-01 3.127180000000000071e+00 6.949150000000000382e+00 3.114900000000000002e+00 -1.399480000000000057e+00 7.809090000000000309e+00 5.582189999999999763e+00 4.683399999999999785e+00 4.687540000000000262e+00 2.520030000000000214e+00 -1.315909999999999913e+00 2.632849999999999913e+00 7.481559999999999988e+00 1.580340000000000078e+00 9.077499999999999458e-01 2.549090000000000078e+00 3.022530000000000161e+00 1.780340000000000034e+00 4.972979999999999734e+00 1.608849999999999891e+00 2.621480000000000032e+00 7.785000000000000253e-02 3.164320000000000022e+00 3.447849999999999859e+00 2.632179999999999964e+00 -1.435100000000000042e+00 4.387400000000000411e+00 5.339660000000000295e+00 1.633089999999999931e+00 7.826209999999999667e+00 7.473220000000000418e+00 -1.401270000000000016e+00 6.466649999999999565e+00 2.342870000000000008e+00 1.404299999999999993e-01 6.967480000000000118e+00 5.050229999999999997e+00 3.105700000000000127e-01 1.043881999999999977e+01 7.494369999999999976e+00 3.165090000000000181e+00 8.725379999999999470e+00 2.471049999999999969e+00 -1.485770000000000035e+00 9.586149999999999949e+00 5.008390000000000342e+00 4.682019999999999627e+00 2.619479999999999809e+00 1.279800000000000104e-01 2.328600000000000114e-01 3.453149999999999942e+00 2.503540000000000099e+00 1.510229999999999961e+00 4.446659999999999613e+00 5.089249999999999829e+00 -1.388419999999999987e+00 7.790840000000000209e+00 7.433939999999999770e+00 1.539120000000000044e+00 5.986220000000000319e+00 2.487989999999999924e+00 3.089059999999999917e+00 6.995309999999999917e+00 5.005289999999999573e+00