-2.952134072999999717e+02
-2.915084081399999718e+02
-2.948009582999999907e+02
-2.969683512500000120e+02
-2.971828398800000173e+02
-2.952935751100000061e+02
-2.960598055799999884e+02
-2.925365476399999807e+02
-2.937714298800000279e+02
-2.958844792300000108e+02
-2.954236678899999902e+02
-2.932101897499999836e+02
-2.945209601000000248e+02
-2.957431695600000126e+02
-2.953830546899999945e+02
-2.921366173499999945e+02
-2.961162474500000030e+02
-2.984866132199999811e+02
-2.929701839300000188e+02
-2.989362249700000120e+02
-2.954929361299999755e+02
-2.946383747900000003e+02
-2.985018125999999938e+02
-2.967242562700000121e+02
-2.960830463899999927e+02
-2.985556262000000061e+02
-2.970652821200000062e+02
-2.915649149800000259e+02
-2.986565296300000227e+02
-2.951380575100000101e+02
-2.984646810300000084e+02
-2.926538443800000096e+02
-2.964426093700000138e+02
-2.984339154200000053e+02
-2.959293549000000212e+02
-2.959559216800000172e+02
-2.987266593599999851e+02
-2.971510088200000155e+02
-2.937901748400000201e+02
-2.935579961999999909e+02
-2.956153301900000088e+02
-2.944700462499999958e+02
-2.931640771200000017e+02
-2.954189061299999821e+02
-2.955099634000000037e+02
-2.919812040300000149e+02
-2.913401096100000132e+02
-2.960437558899999999e+02
-2.956061414499999955e+02
-2.933620199999999727e+02
