6.198421864000000170e+00 0.000000000000000000e+00 0.000000000000000000e+00 -3.108650577000000137e+00 5.362437365999999983e+00 0.000000000000000000e+00 -9.932853899999999348e-02 6.737355899999999953e-02 9.918242703000000660e+00
6.096431954999999903e+00 0.000000000000000000e+00 0.000000000000000000e+00 -3.110836018000000092e+00 5.412950276000000116e+00 0.000000000000000000e+00 -2.655296380000000123e-01 2.593367289999999881e-01 1.003643654500000082e+01
6.123284383999999747e+00 0.000000000000000000e+00 0.000000000000000000e+00 -3.112985308999999923e+00 5.408334242999999653e+00 0.000000000000000000e+00 -2.231301179999999884e-01 2.223170790000000008e-01 1.002334189699999989e+01
6.266200840999999855e+00 0.000000000000000000e+00 0.000000000000000000e+00 -3.150392608000000205e+00 5.385586399000000135e+00 0.000000000000000000e+00 1.478433099999999951e-02 -1.084360799999999937e-02 1.003652962800000026e+01
6.232026718000000187e+00 0.000000000000000000e+00 0.000000000000000000e+00 -3.152514231000000056e+00 5.466952352999999931e+00 0.000000000000000000e+00 -4.696049100000000004e-02 2.502050180000000013e-01 1.010563443100000036e+01
6.214469045000000413e+00 0.000000000000000000e+00 0.000000000000000000e+00 -3.117512944000000008e+00 5.351486092000000028e+00 0.000000000000000000e+00 2.564856839999999916e-01 -2.121104859999999870e-01 1.003223015500000059e+01
6.266222407999999966e+00 0.000000000000000000e+00 0.000000000000000000e+00 -3.143431786999999922e+00 5.297243063999999890e+00 0.000000000000000000e+00 -2.118856259999999936e-01 2.133149579999999990e-01 9.992119923000000625e+00
6.247961787000000378e+00 0.000000000000000000e+00 0.000000000000000000e+00 -3.131562778999999797e+00 5.323830547000000024e+00 0.000000000000000000e+00 2.236344299999999952e-01 -1.855151580000000133e-01 9.956267668000000626e+00
6.160035007000000284e+00 0.000000000000000000e+00 0.000000000000000000e+00 -3.081908288000000162e+00 5.372916078000000262e+00 0.000000000000000000e+00 -1.515615699999999996e-02 2.845729999999999874e-04 1.000374724199999932e+01
6.191205993999999713e+00 0.000000000000000000e+00 0.000000000000000000e+00 -3.115786310999999920e+00 5.366451273000000022e+00 0.000000000000000000e+00 -1.008162140000000012e-01 9.826381000000000351e-03 9.976507140000000717e+00
6.136079829999999902e+00 0.000000000000000000e+00 0.000000000000000000e+00 -3.155300973000000120e+00 5.454381339000000217e+00 0.000000000000000000e+00 2.963485199999999972e-02 -1.731781049999999988e-01 1.009171208000000064e+01
6.237620240000000038e+00 0.000000000000000000e+00 0.000000000000000000e+00 -3.064073157999999797e+00 5.336286667999999622e+00 0.000000000000000000e+00 2.116764009999999863e-01 -1.238673819999999981e-01 9.919865479000000263e+00
6.161561262000000205e+00 0.000000000000000000e+00 0.000000000000000000e+00 -3.060430183999999887e+00 5.342229900000000420e+00 0.000000000000000000e+00 1.071699460000000020e-01 -1.184937259999999937e-01 9.822648981000000390e+00
6.184161590999999625e+00 0.000000000000000000e+00 0.000000000000000000e+00 -3.088129393000000000e+00 5.390855122999999693e+00 0.000000000000000000e+00 -2.208484189999999903e-01 1.578396740000000131e-01 1.001066578500000048e+01
6.155390012999999882e+00 0.000000000000000000e+00 0.000000000000000000e+00 -3.083823113999999865e+00 5.397979734999999835e+00 0.000000000000000000e+00 -1.947841560000000138e-01 2.634769799999999926e-02 1.005819696999999913e+01
6.431862374999999687e+00 0.000000000000000000e+00 0.000000000000000000e+00 -3.325356771000000045e+00 5.256206056999999987e+00 0.000000000000000000e+00 -3.655403369999999930e-01 7.563359899999999580e-02 9.964424170999999220e+00
6.164206966000000065e+00 0.000000000000000000e+00 0.000000000000000000e+00 -3.123915880000000200e+00 5.307968115999999625e+00 0.000000000000000000e+00 9.916300299999999956e-02 -1.751228129999999883e-01 1.006542658400000079e+01
6.176056862000000258e+00 0.000000000000000000e+00 0.000000000000000000e+00 -3.055406714000000079e+00 5.366864209000000052e+00 0.000000000000000000e+00 1.773084299999999960e-02 2.018839299999999892e-02 9.930882206999999795e+00
6.173191491999999947e+00 0.000000000000000000e+00 0.000000000000000000e+00 -3.063174157999999814e+00 5.365726492000000292e+00 0.000000000000000000e+00 1.406283249999999985e-01 -1.007715510000000009e-01 9.983320494999999184e+00
6.103838704000000170e+00 0.000000000000000000e+00 0.000000000000000000e+00 -3.099345164999999902e+00 5.380360518999999897e+00 0.000000000000000000e+00 -2.284321950000000045e-01 2.226560890000000015e-01 1.000393871800000056e+01
6.209991309000000292e+00 0.000000000000000000e+00 0.000000000000000000e+00 -3.144023117999999783e+00 5.344715797000000101e+00 0.000000000000000000e+00 -1.784502759999999910e-01 -1.794757590000000125e-01 9.819267281000000125e+00
6.140757433000000098e+00 0.000000000000000000e+00 0.000000000000000000e+00 -3.062263218000000009e+00 5.332533201999999584e+00 0.000000000000000000e+00 -1.548791629999999864e-01 1.211126369999999952e-01 9.894415919000000059e+00
6.096431954999999903e+00 0.000000000000000000e+00 0.000000000000000000e+00 -3.110836018000000092e+00 5.412950276000000116e+00 0.000000000000000000e+00 -2.655296380000000123e-01 2.593367289999999881e-01 1.003643654500000082e+01
6.168781091999999688e+00 0.000000000000000000e+00 0.000000000000000000e+00 -2.990686600000000084e+00 5.408255781000000262e+00 0.000000000000000000e+00 1.424249469999999962e-01 -2.672398700000000113e-02 1.000069842799999975e+01
6.298161369999999870e+00 0.000000000000000000e+00 0.000000000000000000e+00 -3.177570203000000149e+00 5.347147741999999759e+00 0.000000000000000000e+00 -3.702998999999999787e-03 -4.667973499999999998e-02 9.970683526000000185e+00
6.186920242000000236e+00 0.000000000000000000e+00 0.000000000000000000e+00 -3.083145528999999829e+00 5.388832795999999981e+00 0.000000000000000000e+00 -9.694197999999999357e-03 8.194157999999999997e-02 1.001425565799999973e+01
6.298550802000000282e+00 0.000000000000000000e+00 0.000000000000000000e+00 -3.089750507999999840e+00 5.344177660999999802e+00 0.000000000000000000e+00 2.317890059999999919e-01 -2.695866020000000085e-01 9.952542874000000594e+00
6.170722608000000164e+00 0.000000000000000000e+00 0.000000000000000000e+00 -3.085405138000000047e+00 5.322343814999999978e+00 0.000000000000000000e+00 -8.791389700000000473e-02 3.457501100000000271e-02 9.926522783999999433e+00
6.308838059000000165e+00 0.000000000000000000e+00 0.000000000000000000e+00 -3.146827844999999790e+00 5.377811916999999831e+00 0.000000000000000000e+00 1.211269700000000005e-01 -9.624829899999999550e-02 1.003180356999999923e+01
6.187543852000000122e+00 0.000000000000000000e+00 0.000000000000000000e+00 -3.106642781000000131e+00 5.298504703999999954e+00 0.000000000000000000e+00 -2.193302299999999941e-02 1.708712600000000109e-02 9.813871915000000001e+00
6.220686310999999691e+00 0.000000000000000000e+00 0.000000000000000000e+00 -3.120741962999999952e+00 5.361639443999999699e+00 0.000000000000000000e+00 -1.244848350000000020e-01 3.455567400000000150e-02 9.966447812000000184e+00
6.184032349999999845e+00 0.000000000000000000e+00 0.000000000000000000e+00 -3.145952995000000030e+00 5.389221073999999945e+00 0.000000000000000000e+00 -1.472841290000000136e-01 1.436821259999999933e-01 9.990875436999999692e+00
6.110637231000000114e+00 0.000000000000000000e+00 0.000000000000000000e+00 -3.112912893999999930e+00 5.409498055000000249e+00 0.000000000000000000e+00 -2.433784350000000041e-01 2.386867830000000135e-01 1.004660819799999949e+01
6.215263872999999606e+00 0.000000000000000000e+00 0.000000000000000000e+00 -3.129701444999999804e+00 5.380218901000000109e+00 0.000000000000000000e+00 -1.248432839999999988e-01 -1.939048309999999997e-01 9.824535553000000476e+00
6.168061294000000139e+00 0.000000000000000000e+00 0.000000000000000000e+00 -3.075991619999999926e+00 5.378705359999999658e+00 0.000000000000000000e+00 -2.038211800000000115e-02 2.256842900000000096e-02 9.998192287000000178e+00
6.173153014000000383e+00 0.000000000000000000e+00 0.000000000000000000e+00 -3.086259039000000204e+00 5.385660623999999785e+00 0.000000000000000000e+00 -3.021511899999999862e-02 -1.808090149999999896e-01 9.890238824000000761e+00
6.269960030000000017e+00 0.000000000000000000e+00 0.000000000000000000e+00 -3.172066971000000013e+00 5.343512918000000056e+00 0.000000000000000000e+00 1.204027349999999968e-01 -9.734625299999999370e-02 9.946769254999999532e+00
6.238424431000000325e+00 0.000000000000000000e+00 0.000000000000000000e+00 -3.157281107000000198e+00 5.326934502000000293e+00 0.000000000000000000e+00 -1.669609669999999879e-01 2.455363339999999950e-01 9.946390870000000106e+00
6.170000416999999793e+00 0.000000000000000000e+00 0.000000000000000000e+00 -3.097384542999999990e+00 5.310476052000000280e+00 0.000000000000000000e+00 -4.120636500000000174e-02 2.410579100000000141e-02 9.855661380000000804e+00
6.184950787000000005e+00 0.000000000000000000e+00 0.000000000000000000e+00 -3.158267528000000102e+00 5.280194737999999610e+00 0.000000000000000000e+00 -2.179235330000000026e-01 -1.167972100000000055e-02 9.753866398999999632e+00
6.240366152000000000e+00 0.000000000000000000e+00 0.000000000000000000e+00 -3.052396588000000133e+00 5.371252227000000268e+00 0.000000000000000000e+00 2.078934580000000032e-01 -2.870609829999999918e-01 9.920628717999999679e+00
6.139361476999999567e+00 0.000000000000000000e+00 0.000000000000000000e+00 -3.117488929999999936e+00 5.399855750000000398e+00 0.000000000000000000e+00 -1.874073890000000076e-01 1.873796249999999941e-01 1.008777509399999950e+01
6.212340470000000003e+00 0.000000000000000000e+00 0.000000000000000000e+00 -3.134602058000000024e+00 5.393748732999999795e+00 0.000000000000000000e+00 -3.401921459999999731e-01 2.535826609999999870e-01 9.847938322999999272e+00
6.215050815999999756e+00 0.000000000000000000e+00 0.000000000000000000e+00 -3.137178823000000172e+00 5.368494056000000292e+00 0.000000000000000000e+00 -8.072184599999999988e-02 -1.490638000000000076e-03 1.000654873799999933e+01
6.190814035999999909e+00 0.000000000000000000e+00 0.000000000000000000e+00 -3.138208764999999900e+00 5.393807024000000006e+00 0.000000000000000000e+00 -1.352334470000000066e-01 1.008610749999999945e-01 1.009106539299999916e+01
6.161920465999999763e+00 0.000000000000000000e+00 0.000000000000000000e+00 -3.074290149999999944e+00 5.385220093000000041e+00 0.000000000000000000e+00 -1.411279200000000074e-02 3.681188199999999716e-02 9.996565156999999147e+00
6.152051656000000257e+00 0.000000000000000000e+00 0.000000000000000000e+00 -3.098111841999999783e+00 5.321741006999999968e+00 0.000000000000000000e+00 -3.324709800000000270e-02 1.957764000000000032e-02 9.858086399999999472e+00
6.138636338000000414e+00 0.000000000000000000e+00 0.000000000000000000e+00 -3.124337757000000160e+00 5.281616835000000343e+00 0.000000000000000000e+00 -1.734842410000000112e-01 -1.486946999999999922e-02 9.875532309000000453e+00
6.099587074000000442e+00 0.000000000000000000e+00 0.000000000000000000e+00 -3.074117862000000034e+00 5.306309553000000179e+00 0.000000000000000000e+00 -1.341219300000000003e-01 1.272570369999999895e-01 9.954505683000000715e+00
6.147644688999999829e+00 0.000000000000000000e+00 0.000000000000000000e+00 -3.036488685000000132e+00 5.417840894000000240e+00 0.000000000000000000e+00 3.111031450000000254e-01 1.477119660000000001e-01 1.007854004300000028e+01
