1.480380000000000029e+00 9.362200000000000522e-01 4.244909999999999961e+00 1.417300000000000004e+00 1.011830000000000007e+00 2.893899999999999806e-01 -2.443000000000000033e-02 3.637620000000000076e+00 4.335880000000000400e+00 -1.618199999999999916e-01 3.699850000000000083e+00 9.289550000000000196e+00 4.611379999999999590e+00 9.181500000000000217e-01 4.331450000000000244e+00 4.487099999999999866e+00 1.022219999999999906e+00 9.290729999999999933e+00 3.015289999999999804e+00 3.600630000000000219e+00 4.311040000000000205e+00 2.955169999999999852e+00 3.698440000000000172e+00 9.284879999999999356e+00 -1.241400000000000003e-01 1.884949999999999903e+00 1.944600000000000106e+00 -8.203000000000000569e-02 1.865070000000000006e+00 6.765979999999999883e+00 -1.603220000000000089e+00 4.476880000000000415e+00 1.939529999999999976e+00 -1.664760000000000018e+00 4.540210000000000079e+00 6.737969999999999793e+00 3.098790000000000155e+00 1.870560000000000000e+00 1.917699999999999960e+00 3.005739999999999856e+00 1.920849999999999946e+00 6.740739999999999732e+00 1.477710000000000079e+00 4.540219999999999700e+00 1.837010000000000032e+00 1.423030000000000017e+00 4.566919999999999646e+00 6.823500000000000121e+00 1.498259999999999925e+00 9.365900000000000336e-01 8.861159999999999926e+00 1.459019999999999984e+00 9.686799999999999855e-01 2.284940000000000193e+00 1.480469999999999953e+00 9.729400000000000270e-01 7.152709999999999901e+00 -4.968999999999999806e-02 3.639670000000000183e+00 2.471940000000000026e+00 -1.449000000000000010e-01 3.621770000000000156e+00 7.378219999999999779e+00 4.581339999999999968e+00 9.371800000000000130e-01 2.460459999999999869e+00 4.548980000000000246e+00 9.975399999999999823e-01 7.392649999999999721e+00 3.036550000000000082e+00 3.631339999999999790e+00 2.431740000000000013e+00 3.011940000000000062e+00 3.650739999999999874e+00 7.385309999999999597e+00 -6.056000000000000272e-02 1.849469999999999947e+00 4.861430000000000362e+00 -1.846500000000000086e-01 1.923399999999999999e+00 4.853999999999999981e-02 -1.601410000000000000e+00 4.507570000000000299e+00 4.832779999999999632e+00 -1.709249999999999936e+00 4.526189999999999714e+00 9.917970000000000397e+00 3.034139999999999837e+00 1.821490000000000054e+00 4.835399999999999920e+00 3.028239999999999821e+00 1.973400000000000043e+00 9.905739999999999768e+00 1.497749999999999915e+00 4.524070000000000036e+00 4.972010000000000041e+00 1.389659999999999895e+00 4.592719999999999914e+00 9.865140000000000242e+00
1.372800000000000020e+00 1.058789999999999898e+00 4.382699999999999818e+00 1.416130000000000111e+00 1.087089999999999890e+00 1.000399999999999956e+01 -1.574399999999999966e-01 3.783619999999999983e+00 4.372729999999999784e+00 -3.331100000000000172e-01 3.895370000000000221e+00 9.407769999999999300e+00 4.418610000000000149e+00 1.021349999999999980e+00 4.367180000000000284e+00 4.274029999999999774e+00 1.193480000000000096e+00 9.407780000000000697e+00 2.843370000000000175e+00 3.774210000000000065e+00 4.412530000000000285e+00 2.747809999999999864e+00 3.876290000000000013e+00 9.429370000000000474e+00 -1.283600000000000019e-01 1.909880000000000022e+00 1.914339999999999931e+00 -3.092400000000000149e-01 2.060299999999999798e+00 6.729580000000000339e+00 -1.658490000000000020e+00 4.548549999999999649e+00 1.985649999999999915e+00 -1.788000000000000034e+00 4.697989999999999888e+00 6.831699999999999662e+00 2.989390000000000214e+00 1.917969999999999953e+00 1.986909999999999954e+00 2.845650000000000013e+00 2.027149999999999785e+00 6.831780000000000186e+00 1.400609999999999911e+00 4.594190000000000218e+00 1.858489999999999975e+00 1.258620000000000072e+00 4.730269999999999975e+00 6.940260000000000318e+00 8.279600000000000293e-01 1.425149999999999917e+00 8.826829999999999288e+00 1.423059999999999992e+00 1.002259999999999929e+00 2.400630000000000042e+00 1.252739999999999965e+00 1.146050000000000013e+00 7.087279999999999802e+00 -1.125300000000000050e-01 3.719409999999999883e+00 2.495200000000000085e+00 -2.706600000000000117e-01 3.827469999999999928e+00 7.470390000000000086e+00 4.472059999999999924e+00 9.773899999999999810e-01 2.492539999999999978e+00 4.345430000000000348e+00 1.147720000000000073e+00 7.470880000000000187e+00 2.892599999999999838e+00 3.727380000000000138e+00 2.535499999999999865e+00 2.789969999999999839e+00 3.834060000000000024e+00 7.478080000000000283e+00 -2.165799999999999947e-01 1.991370000000000084e+00 4.875280000000000058e+00 -1.188700000000000034e-01 1.888840000000000074e+00 2.419999999999999842e-03 -1.734350000000000058e+00 4.648590000000000444e+00 4.922049999999999592e+00 -1.588600000000000012e+00 4.421299999999999564e+00 9.576999999999999402e-02 2.894509999999999916e+00 1.979710000000000081e+00 4.927699999999999747e+00 3.115450000000000053e+00 1.894679999999999920e+00 9.907000000000000528e-02 1.313639999999999919e+00 4.679450000000000109e+00 5.023930000000000007e+00 1.168809999999999905e+00 4.812479999999999869e+00 9.981659999999999755e+00
1.436460000000000070e+00 1.009339999999999904e+00 4.357639999999999958e+00 1.561900000000000066e+00 8.795399999999999885e-01 1.114099999999999951e-01 -1.611499999999999877e-01 3.726459999999999884e+00 4.308139999999999858e+00 -2.818800000000000194e-01 3.736749999999999794e+00 9.398540000000000560e+00 4.485949999999999882e+00 9.049500000000000322e-01 4.246459999999999901e+00 4.203459999999999752e+00 1.147199999999999998e+00 9.468759999999999621e+00 2.819100000000000161e+00 3.730220000000000091e+00 4.358220000000000205e+00 2.807529999999999859e+00 3.875030000000000197e+00 9.437300000000000466e+00 -8.108999999999999542e-02 1.844530000000000003e+00 2.010380000000000056e+00 -2.512599999999999834e-01 1.990189999999999904e+00 6.652050000000000018e+00 -1.650130000000000097e+00 4.533970000000000056e+00 1.919589999999999907e+00 -1.655149999999999899e+00 4.748260000000000147e+00 6.812149999999999928e+00 2.950219999999999843e+00 2.033970000000000056e+00 2.056610000000000049e+00 2.880050000000000221e+00 2.139590000000000103e+00 6.813180000000000014e+00 1.345169999999999977e+00 4.608679999999999666e+00 1.763279999999999959e+00 1.386609999999999898e+00 4.788190000000000168e+00 6.928480000000000416e+00 1.059059999999999890e+00 1.332109999999999905e+00 8.783279999999999532e+00 1.502220000000000111e+00 9.537999999999999812e-01 2.309750000000000192e+00 1.338359999999999994e+00 1.137410000000000032e+00 7.118549999999999933e+00 -1.106700000000000045e-01 3.612289999999999779e+00 2.475789999999999935e+00 -2.174200000000000021e-01 3.703619999999999912e+00 7.504310000000000258e+00 4.422159999999999869e+00 9.082599999999999563e-01 2.381810000000000205e+00 4.357719999999999594e+00 1.203249999999999931e+00 7.565059999999999896e+00 2.867789999999999839e+00 3.805569999999999897e+00 2.533980000000000121e+00 2.956319999999999837e+00 3.886280000000000179e+00 7.610999999999999766e+00 -1.447400000000000075e-01 1.907999999999999918e+00 4.764990000000000059e+00 -1.110700000000000021e-01 1.803840000000000110e+00 1.107800000000000035e-01 -1.746920000000000028e+00 4.660510000000000375e+00 4.894610000000000127e+00 -1.516000000000000014e+00 4.491380000000000372e+00 3.515999999999999681e-02 2.948970000000000091e+00 1.991859999999999964e+00 4.958190000000000097e+00 3.039130000000000109e+00 1.949929999999999941e+00 1.694599999999999995e-01 1.340279999999999916e+00 4.621120000000000339e+00 5.010939999999999728e+00 1.198209999999999997e+00 4.738780000000000214e+00 9.880950000000000344e+00
1.537109999999999976e+00 1.008990000000000054e+00 4.384610000000000340e+00 1.566079999999999917e+00 1.116190000000000015e+00 2.547800000000000065e-01 -4.991999999999999910e-02 3.554689999999999905e+00 4.384929999999999772e+00 1.907000000000000015e-02 3.629490000000000105e+00 9.334619999999999251e+00 4.658129999999999882e+00 9.664500000000000313e-01 4.397560000000000358e+00 4.679719999999999658e+00 8.663999999999999480e-01 9.542070000000000718e+00 2.926439999999999930e+00 3.623460000000000125e+00 4.280420000000000336e+00 3.007989999999999942e+00 3.682599999999999874e+00 9.462680000000000646e+00 -1.037399999999999989e-01 1.825360000000000094e+00 2.056020000000000181e+00 -4.112999999999999989e-02 1.814049999999999940e+00 6.746570000000000178e+00 -1.458450000000000024e+00 4.439199999999999591e+00 1.757050000000000001e+00 -1.722280000000000033e+00 4.597260000000000346e+00 6.834419999999999717e+00 3.060060000000000002e+00 1.922700000000000076e+00 1.966949999999999976e+00 3.102559999999999985e+00 1.779519999999999991e+00 6.870379999999999932e+00 1.539269999999999916e+00 4.551800000000000068e+00 1.662690000000000001e+00 1.476369999999999960e+00 4.579769999999999897e+00 6.943279999999999674e+00 1.696830000000000060e+00 7.211300000000000487e-01 9.013419999999999987e+00 1.610559999999999992e+00 8.896500000000000519e-01 2.276860000000000106e+00 1.519479999999999942e+00 9.635299999999999976e-01 7.367270000000000429e+00 5.338999999999999996e-02 3.558870000000000200e+00 2.501850000000000129e+00 -1.651700000000000113e-01 3.612680000000000113e+00 7.275909999999999656e+00 4.543800000000000061e+00 8.840099999999999625e-01 2.470470000000000166e+00 4.782700000000000173e+00 8.574199999999999600e-01 7.626019999999999577e+00 3.227100000000000080e+00 3.739459999999999784e+00 2.454540000000000166e+00 3.065630000000000077e+00 3.668340000000000156e+00 7.561040000000000205e+00 -8.343000000000000416e-02 1.817020000000000080e+00 4.858859999999999957e+00 -9.375000000000000000e-02 1.878719999999999946e+00 5.521999999999999825e-02 -1.673200000000000021e+00 4.609910000000000174e+00 4.906729999999999592e+00 -1.550450000000000106e+00 4.331970000000000098e+00 9.946260000000000545e+00 3.158580000000000165e+00 1.866400000000000059e+00 4.859779999999999767e+00 3.261589999999999989e+00 1.854940000000000033e+00 2.713200000000000056e-01 1.400079999999999991e+00 4.597780000000000200e+00 4.990400000000000169e+00 1.543260000000000076e+00 4.479129999999999612e+00 9.849330000000000140e+00
1.477810000000000068e+00 1.139529999999999932e+00 4.455409999999999648e+00 1.476690000000000058e+00 1.072610000000000063e+00 1.002200000000000035e-01 -5.392000000000000265e-02 3.894320000000000004e+00 4.463860000000000383e+00 -1.364400000000000057e-01 4.023500000000000298e+00 9.448399999999999466e+00 4.656310000000000393e+00 1.098959999999999937e+00 4.525050000000000239e+00 4.517999999999999794e+00 1.200890000000000013e+00 9.293979999999999464e+00 3.052179999999999893e+00 3.912520000000000220e+00 4.345010000000000261e+00 2.936830000000000052e+00 3.831669999999999909e+00 9.575620000000000687e+00 -1.509900000000000131e-01 2.026780000000000026e+00 2.096060000000000034e+00 7.033999999999999975e-02 2.011070000000000135e+00 6.761050000000000004e+00 -1.617930000000000090e+00 4.669469999999999565e+00 1.923969999999999958e+00 -1.565609999999999946e+00 4.674559999999999604e+00 6.945929999999999715e+00 3.009209999999999940e+00 1.829450000000000021e+00 2.000430000000000152e+00 3.154770000000000074e+00 2.042180000000000106e+00 6.878320000000000434e+00 1.459430000000000005e+00 4.619959999999999845e+00 1.952210000000000001e+00 1.639669999999999961e+00 4.678889999999999993e+00 6.834570000000000256e+00 1.165969999999999951e+00 1.106989999999999919e+00 8.879189999999999472e+00 1.420230000000000103e+00 1.209829999999999961e+00 2.269600000000000062e+00 1.725950000000000095e+00 1.051080000000000014e+00 7.236040000000000028e+00 -1.139199999999999935e-01 3.779520000000000213e+00 2.456960000000000033e+00 1.634500000000000119e-01 3.779420000000000002e+00 7.452340000000000408e+00 4.664209999999999745e+00 1.033260000000000067e+00 2.624800000000000022e+00 4.716540000000000177e+00 1.036489999999999911e+00 7.446290000000000298e+00 3.010819999999999830e+00 3.736069999999999780e+00 2.473809999999999842e+00 3.076690000000000147e+00 3.728190000000000115e+00 7.466070000000000206e+00 -8.927999999999999825e-02 2.027639999999999887e+00 5.006969999999999921e+00 -4.200900000000000190e-01 1.903750000000000053e+00 1.375999999999999966e-02 -1.668039999999999967e+00 4.650070000000000370e+00 5.059720000000000439e+00 -1.752420000000000089e+00 4.554109999999999658e+00 1.485999999999999995e-02 2.951729999999999965e+00 1.914269999999999916e+00 5.038640000000000008e+00 3.136950000000000127e+00 1.832049999999999956e+00 1.066099999999999964e-01 1.637189999999999923e+00 4.838589999999999947e+00 5.045880000000000365e+00 1.382309999999999928e+00 4.934650000000000425e+00 1.001632999999999996e+01
1.659969999999999946e+00 8.546000000000000263e-01 4.355010000000000048e+00 1.566559999999999953e+00 9.477700000000000014e-01 2.884300000000000197e-01 1.239200000000000024e-01 3.528929999999999900e+00 4.364460000000000228e+00 1.819900000000000129e-01 3.427709999999999813e+00 9.409900000000000375e+00 4.746610000000000440e+00 8.142000000000000348e-01 4.359619999999999607e+00 4.873759999999999870e+00 7.450099999999999500e-01 9.399910000000000210e+00 3.218949999999999978e+00 3.537090000000000067e+00 4.347640000000000171e+00 3.336269999999999847e+00 3.407869999999999955e+00 9.424039999999999750e+00 4.309999999999999595e-03 1.778280000000000083e+00 1.916520000000000001e+00 9.071999999999999509e-02 1.686220000000000052e+00 6.820839999999999570e+00 -1.493020000000000014e+00 4.381739999999999746e+00 1.897729999999999917e+00 -1.437750000000000083e+00 4.295829999999999593e+00 6.869510000000000005e+00 3.210580000000000211e+00 1.786610000000000031e+00 1.923229999999999995e+00 3.278239999999999821e+00 1.637440000000000007e+00 6.845259999999999678e+00 1.598540000000000072e+00 4.415510000000000268e+00 1.830670000000000019e+00 1.699389999999999956e+00 4.314379999999999882e+00 6.912959999999999994e+00 1.630390000000000006e+00 8.045999999999999819e-01 8.944969999999999644e+00 1.612749999999999906e+00 9.079599999999999893e-01 2.366880000000000095e+00 1.659289999999999932e+00 7.910599999999999854e-01 7.207740000000000258e+00 3.640999999999999792e-02 3.566479999999999873e+00 2.432189999999999852e+00 1.136400000000000049e-01 3.458610000000000184e+00 7.489679999999999893e+00 4.723559999999999981e+00 8.987899999999999778e-01 2.434909999999999908e+00 4.789060000000000095e+00 7.735499999999999599e-01 7.497160000000000046e+00 3.159359999999999946e+00 3.592109999999999914e+00 2.458000000000000185e+00 3.299170000000000158e+00 3.420310000000000183e+00 7.545560000000000045e+00 5.750999999999999862e-02 1.719109999999999916e+00 4.909390000000000143e+00 1.462600000000000011e-01 1.645680000000000032e+00 9.981529999999999347e+00 -1.482990000000000030e+00 4.373269999999999769e+00 4.937020000000000408e+00 -1.632149999999999990e+00 4.430530000000000079e+00 2.528000000000000039e-02 3.189540000000000042e+00 1.722909999999999942e+00 4.925150000000000361e+00 3.126669999999999838e+00 1.886589999999999989e+00 3.874999999999999972e-02 1.635550000000000059e+00 4.383860000000000312e+00 4.981460000000000221e+00 1.728820000000000023e+00 4.291570000000000107e+00 9.977679999999999438e+00
1.494240000000000013e+00 1.001940000000000053e+00 4.380340000000000344e+00 1.478429999999999911e+00 1.200660000000000061e+00 1.097500000000000003e-01 -1.079999999999999988e-01 3.505409999999999915e+00 4.401860000000000106e+00 -2.676000000000000045e-01 3.841349999999999820e+00 9.287169999999999703e+00 4.654609999999999914e+00 9.735700000000000465e-01 4.305550000000000210e+00 4.438360000000000305e+00 1.163739999999999997e+00 9.366630000000000678e+00 2.977450000000000152e+00 3.803889999999999993e+00 4.249069999999999681e+00 2.809730000000000061e+00 3.900129999999999875e+00 9.254339999999999122e+00 -1.529099999999999904e-01 1.845180000000000042e+00 2.100859999999999950e+00 -2.626899999999999791e-01 1.772639999999999993e+00 6.867980000000000196e+00 -1.618079999999999963e+00 4.566729999999999734e+00 1.961009999999999920e+00 -1.905920000000000059e+00 4.567040000000000433e+00 6.760349999999999859e+00 3.206179999999999808e+00 1.804680000000000062e+00 1.853750000000000009e+00 2.945019999999999971e+00 2.023880000000000123e+00 6.752169999999999561e+00 1.345290000000000097e+00 4.604110000000000369e+00 1.935990000000000100e+00 1.394249999999999989e+00 4.578890000000000349e+00 6.940380000000000216e+00 1.310729999999999951e+00 9.162500000000000089e-01 8.824920000000000542e+00 1.560459999999999958e+00 9.561600000000000099e-01 2.410120000000000040e+00 1.478529999999999900e+00 1.107930000000000081e+00 7.142019999999999591e+00 -1.791099999999999914e-01 3.652719999999999967e+00 2.407869999999999955e+00 -3.109799999999999787e-01 3.684839999999999893e+00 7.364639999999999631e+00 4.566720000000000113e+00 9.327699999999999880e-01 2.500900000000000123e+00 4.435670000000000002e+00 1.031379999999999963e+00 7.484980000000000189e+00 3.246080000000000076e+00 3.547750000000000181e+00 2.552700000000000191e+00 3.037279999999999980e+00 3.754750000000000032e+00 7.442660000000000053e+00 -1.126599999999999963e-01 1.802880000000000038e+00 4.897599999999999731e+00 -1.560699999999999865e-01 2.003369999999999873e+00 2.164899999999999880e-01 -1.715680000000000094e+00 4.599529999999999674e+00 4.817929999999999602e+00 -1.818570000000000020e+00 4.743649999999999700e+00 9.894809999999999661e+00 3.066100000000000048e+00 1.916860000000000008e+00 4.790230000000000210e+00 2.980570000000000164e+00 2.106120000000000214e+00 9.989039999999999253e+00 1.434970000000000079e+00 4.449779999999999625e+00 5.017579999999999707e+00 1.448290000000000077e+00 4.311860000000000248e+00 6.542000000000000592e-02
1.562840000000000007e+00 9.202099999999999724e-01 4.290860000000000340e+00 1.479049999999999976e+00 1.268029999999999990e+00 1.644700000000000051e-01 1.061399999999999982e-01 3.450390000000000068e+00 4.230520000000000280e+00 2.402299999999999991e-01 3.344129999999999825e+00 9.395339999999999137e+00 4.742320000000000313e+00 9.388499999999999623e-01 4.387120000000000353e+00 4.754129999999999967e+00 7.705400000000000027e-01 9.280920000000000059e+00 3.230459999999999887e+00 3.615079999999999849e+00 4.296610000000000262e+00 3.372679999999999900e+00 3.513980000000000103e+00 9.338300000000000267e+00 -8.150000000000000300e-02 1.728709999999999969e+00 1.884579999999999922e+00 9.990000000000000269e-02 1.503919999999999924e+00 6.925180000000000113e+00 -1.516799999999999926e+00 4.569139999999999979e+00 1.828060000000000018e+00 -1.427179999999999893e+00 4.175699999999999967e+00 6.714489999999999625e+00 3.274690000000000101e+00 1.923710000000000031e+00 1.993190000000000017e+00 3.270640000000000214e+00 1.658700000000000063e+00 6.839850000000000207e+00 1.477209999999999912e+00 4.385839999999999961e+00 1.879229999999999956e+00 1.627320000000000100e+00 4.227219999999999978e+00 6.756000000000000227e+00 2.074310000000000098e+00 7.297500000000000098e-01 8.860889999999999489e+00 1.554529999999999967e+00 1.078850000000000087e+00 2.203920000000000101e+00 1.718150000000000066e+00 5.956000000000000183e-01 7.232700000000000351e+00 -5.696999999999999981e-02 3.540599999999999969e+00 2.334169999999999856e+00 1.439999999999999891e-01 3.271150000000000002e+00 7.593340000000000423e+00 4.642190000000000261e+00 9.078699999999999548e-01 2.499779999999999891e+00 4.694770000000000110e+00 6.727300000000000502e-01 7.411400000000000432e+00 3.225049999999999972e+00 3.740359999999999907e+00 2.391360000000000152e+00 3.246249999999999858e+00 3.355480000000000018e+00 7.477009999999999934e+00 1.098599999999999993e-01 1.640849999999999920e+00 5.093650000000000233e+00 -2.120400000000000063e-01 1.658919999999999950e+00 4.406000000000000194e-02 -1.398859999999999992e+00 4.415079999999999671e+00 4.792259999999999742e+00 -1.248340000000000005e+00 4.220469999999999722e+00 9.896369999999999223e+00 3.160530000000000062e+00 1.790629999999999944e+00 4.888010000000000410e+00 3.352370000000000072e+00 1.819460000000000077e+00 9.934179999999999566e+00 1.539630000000000054e+00 4.442370000000000374e+00 4.904320000000000235e+00 1.741160000000000041e+00 4.329430000000000334e+00 9.953720000000000567e+00
1.508709999999999996e+00 9.261300000000000088e-01 4.342200000000000060e+00 1.474239999999999995e+00 9.278199999999999781e-01 2.102100000000000080e-01 -3.660000000000000059e-02 3.640779999999999905e+00 4.353040000000000020e+00 -3.670000000000000345e-02 3.597910000000000164e+00 9.387130000000000862e+00 4.576839999999999797e+00 9.141700000000000381e-01 4.370560000000000223e+00 4.593569999999999709e+00 9.410600000000000076e-01 9.352339999999999876e+00 3.009739999999999860e+00 3.643409999999999815e+00 4.373070000000000235e+00 3.052509999999999835e+00 3.615000000000000213e+00 9.396480000000000388e+00 -9.905999999999999528e-02 1.870640000000000081e+00 1.967389999999999972e+00 -5.852999999999999869e-02 1.833749999999999991e+00 6.784519999999999662e+00 -1.583099999999999952e+00 4.516440000000000232e+00 1.944709999999999939e+00 -1.586840000000000028e+00 4.477120000000000211e+00 6.794450000000000323e+00 3.064430000000000209e+00 1.857709999999999972e+00 1.946220000000000061e+00 3.069150000000000045e+00 1.851029999999999953e+00 6.776049999999999685e+00 1.520319999999999894e+00 4.526629999999999932e+00 1.824570000000000025e+00 1.450299999999999923e+00 4.535919999999999952e+00 6.874380000000000379e+00 1.628670000000000062e+00 8.865800000000000347e-01 8.839930000000000732e+00 1.491319999999999979e+00 9.574200000000000488e-01 2.333979999999999944e+00 1.526659999999999906e+00 9.190300000000000136e-01 7.127270000000000216e+00 -4.272000000000000103e-02 3.648379999999999956e+00 2.463249999999999940e+00 -6.414999999999999869e-02 3.594770000000000021e+00 7.491010000000000169e+00 4.565999999999999837e+00 9.257499999999999618e-01 2.465559999999999974e+00 4.580490000000000173e+00 9.467900000000000205e-01 7.488900000000000112e+00 3.019190000000000040e+00 3.647400000000000198e+00 2.474470000000000169e+00 3.020620000000000083e+00 3.602240000000000109e+00 7.480789999999999829e+00 -4.789000000000000201e-02 1.842759999999999954e+00 4.882170000000000343e+00 -1.148799999999999960e-01 1.887240000000000029e+00 7.804999999999999438e-02 -1.582989999999999897e+00 4.503499999999999837e+00 4.912410000000000387e+00 -1.556810000000000027e+00 4.431989999999999874e+00 2.580999999999999961e-02 3.045970000000000066e+00 1.834070000000000089e+00 4.900649999999999729e+00 3.128219999999999779e+00 1.864030000000000076e+00 3.810000000000000019e-03 1.483880000000000088e+00 4.536240000000000272e+00 4.999939999999999607e+00 1.512999999999999901e+00 4.510720000000000063e+00 9.913100000000000023e+00
1.476699999999999902e+00 9.463200000000000500e-01 4.253059999999999619e+00 1.309169999999999945e+00 9.944800000000000306e-01 1.995099999999999929e-01 -9.128999999999999615e-02 3.622469999999999857e+00 4.372740000000000293e+00 -1.636400000000000077e-01 3.623180000000000067e+00 9.369839999999999947e+00 4.573820000000000441e+00 9.032200000000000228e-01 4.352450000000000152e+00 4.492110000000000269e+00 9.515500000000000069e-01 9.351480000000000459e+00 2.968249999999999833e+00 3.614930000000000199e+00 4.359160000000000146e+00 2.951820000000000110e+00 3.613259999999999916e+00 9.328559999999999519e+00 -1.398699999999999943e-01 1.874020000000000019e+00 1.970979999999999954e+00 -6.948000000000000009e-02 1.849169999999999980e+00 6.824729999999999741e+00 -1.636919999999999931e+00 4.472430000000000128e+00 1.920469999999999899e+00 -1.616859999999999964e+00 4.510030000000000427e+00 6.766969999999999708e+00 3.051260000000000083e+00 1.841380000000000017e+00 1.895520000000000094e+00 3.055250000000000021e+00 1.840219999999999967e+00 6.750530000000000364e+00 1.472560000000000091e+00 4.519800000000000040e+00 1.852549999999999919e+00 1.463119999999999976e+00 4.552209999999999646e+00 6.858080000000000176e+00 1.630309999999999926e+00 8.176799999999999624e-01 8.949030000000000484e+00 1.455140000000000100e+00 9.420399999999999885e-01 2.223450000000000149e+00 1.519740000000000091e+00 9.213000000000000078e-01 7.218200000000000394e+00 -6.901000000000000190e-02 3.636670000000000069e+00 2.483299999999999841e+00 -9.718000000000000249e-02 3.598450000000000149e+00 7.461020000000000429e+00 4.545790000000000219e+00 9.149000000000000465e-01 2.475760000000000183e+00 4.576120000000000410e+00 9.708700000000000108e-01 7.463729999999999976e+00 3.002510000000000012e+00 3.604750000000000121e+00 2.437500000000000000e+00 3.028049999999999908e+00 3.615619999999999834e+00 7.428709999999999702e+00 -7.506999999999999784e-02 1.826969999999999983e+00 4.927859999999999907e+00 -2.428200000000000081e-01 1.930449999999999999e+00 1.032900000000000068e-01 -1.637129999999999974e+00 4.535610000000000142e+00 4.869749999999999801e+00 -1.703880000000000061e+00 4.496360000000000134e+00 9.974009999999999820e+00 3.031989999999999963e+00 1.827939999999999898e+00 4.876439999999999664e+00 2.970979999999999954e+00 1.856500000000000039e+00 9.956350000000000477e+00 1.451770000000000005e+00 4.504410000000000025e+00 4.969759999999999955e+00 1.406560000000000032e+00 4.527190000000000047e+00 9.894370000000000331e+00
1.454429999999999890e+00 7.792799999999999727e-01 4.547889999999999766e+00 1.701149999999999940e+00 9.592899999999999761e-01 3.478600000000000025e-01 -1.776500000000000024e-01 3.478520000000000056e+00 4.439560000000000173e+00 -1.472000000000000045e-02 3.722119999999999873e+00 9.441129999999999356e+00 4.539789999999999992e+00 6.038999999999999924e-01 4.417399999999999771e+00 4.540099999999999802e+00 1.016529999999999934e+00 9.564140000000000086e+00 2.981120000000000214e+00 3.550370000000000026e+00 4.302469999999999573e+00 2.929479999999999862e+00 3.684709999999999930e+00 9.319240000000000634e+00 -1.759100000000000108e-01 1.787770000000000081e+00 2.065020000000000078e+00 7.110000000000000001e-03 1.747409999999999908e+00 6.975329999999999586e+00 -1.773849999999999927e+00 4.486819999999999808e+00 2.065570000000000128e+00 -1.583900000000000086e+00 4.408489999999999576e+00 6.897610000000000241e+00 3.199549999999999894e+00 1.743810000000000082e+00 1.989689999999999959e+00 3.205610000000000070e+00 1.739619999999999944e+00 6.961969999999999992e+00 1.365350000000000064e+00 4.296499999999999986e+00 1.833939999999999904e+00 1.547500000000000098e+00 4.505679999999999907e+00 7.077930000000000277e+00 1.443869999999999987e+00 7.893400000000000416e-01 9.124000000000000554e+00 1.500369999999999981e+00 1.042850000000000055e+00 2.093030000000000168e+00 1.582279999999999909e+00 7.913799999999999724e-01 7.270400000000000418e+00 -3.115600000000000036e-01 3.653910000000000213e+00 2.577879999999999949e+00 -6.908000000000000251e-02 3.605820000000000025e+00 7.559779999999999944e+00 4.511940000000000062e+00 7.343300000000000383e-01 2.443099999999999827e+00 4.660680000000000156e+00 8.231399999999999828e-01 7.594769999999999577e+00 2.930779999999999941e+00 3.605420000000000069e+00 2.437969999999999970e+00 3.019870000000000054e+00 3.568470000000000031e+00 7.362910000000000288e+00 -1.270999999999999908e-01 1.725340000000000096e+00 4.786089999999999733e+00 -5.756000000000000005e-02 1.905960000000000099e+00 1.003303999999999974e+01 -1.691629999999999967e+00 4.494959999999999845e+00 5.065809999999999924e+00 -1.681799999999999962e+00 4.406290000000000262e+00 9.932750000000000412e+00 3.067190000000000083e+00 1.755810000000000093e+00 4.920580000000000176e+00 3.171229999999999993e+00 2.053370000000000140e+00 2.477499999999999980e-01 1.411839999999999984e+00 4.250810000000000421e+00 4.977630000000000443e+00 1.604430000000000023e+00 4.552870000000000417e+00 9.984899999999999665e+00
1.709600000000000009e+00 9.300899999999999723e-01 4.312229999999999563e+00 1.370460000000000012e+00 9.468699999999999894e-01 5.541000000000000092e-02 8.863999999999999657e-02 3.562520000000000131e+00 4.316089999999999982e+00 2.770500000000000185e-01 3.408700000000000063e+00 9.163600000000000634e+00 4.738229999999999720e+00 8.527900000000000480e-01 4.252650000000000041e+00 4.899440000000000239e+00 8.350499999999999590e-01 9.397019999999999484e+00 3.163920000000000066e+00 3.558139999999999858e+00 4.388770000000000060e+00 3.422559999999999825e+00 3.540430000000000188e+00 9.257989999999999498e+00 -5.773999999999999966e-02 1.827569999999999917e+00 1.941079999999999917e+00 1.470499999999999863e-01 1.629799999999999915e+00 6.730290000000000106e+00 -1.650700000000000056e+00 4.343890000000000029e+00 1.926819999999999977e+00 -1.424430000000000085e+00 4.328549999999999898e+00 6.731550000000000367e+00 3.170650000000000190e+00 1.895040000000000058e+00 1.827530000000000099e+00 3.357810000000000183e+00 1.686509999999999954e+00 6.779239999999999711e+00 1.583550000000000013e+00 4.424959999999999560e+00 1.706669999999999909e+00 1.689270000000000049e+00 4.338779999999999859e+00 6.927859999999999907e+00 2.211949999999999861e+00 8.303000000000000380e-01 8.758470000000000866e+00 1.567960000000000020e+00 9.885899999999999688e-01 2.348040000000000127e+00 1.716560000000000086e+00 8.236200000000000188e-01 7.161469999999999558e+00 6.840000000000000246e-02 3.638520000000000199e+00 2.370010000000000172e+00 1.264299999999999868e-01 3.444220000000000059e+00 7.332679999999999865e+00 4.588440000000000296e+00 9.310699999999999532e-01 2.326410000000000089e+00 4.909659999999999691e+00 7.212100000000000177e-01 7.443570000000000242e+00 3.025380000000000180e+00 3.599889999999999812e+00 2.519099999999999895e+00 3.398089999999999833e+00 3.488750000000000018e+00 7.507380000000000386e+00 1.333799999999999986e-01 1.751859999999999973e+00 4.818609999999999616e+00 -1.772400000000000087e-01 1.907920000000000060e+00 4.979999999999999705e-02 -1.532340000000000035e+00 4.562500000000000000e+00 4.910260000000000069e+00 -1.476390000000000091e+00 4.347760000000000069e+00 1.242000000000000048e-02 3.297789999999999999e+00 1.741749999999999909e+00 4.909620000000000317e+00 3.104150000000000187e+00 1.878840000000000066e+00 2.036999999999999922e-02 1.623019999999999907e+00 4.412869999999999848e+00 4.992700000000000138e+00 1.752119999999999900e+00 4.366159999999999819e+00 9.902250000000000441e+00