-2.658191244299999880e+02
-2.665129609300000197e+02
-2.645525782799999774e+02
-2.622526108399999885e+02
-2.617004960599999777e+02
-2.655830053399999997e+02
-2.618919848300000126e+02
-2.629219664199999897e+02
-2.659690272299999947e+02
-2.661239709399999924e+02
-2.604682902800000193e+02
-2.639723311700000181e+02
-2.642768529699999931e+02
-2.658460005200000182e+02
-2.615389913299999876e+02
-2.592348201300000028e+02
-2.637725343399999929e+02
-2.651677957699999979e+02
-2.642288843800000109e+02
-2.649188669299999788e+02
-2.627810850000000187e+02
-2.658961967299999856e+02
-2.665129609300000197e+02
-2.623670438500000159e+02
-2.632613004400000136e+02
-2.662704671800000256e+02
-2.622491945799999939e+02
-2.661948022600000172e+02
-2.634100974599999745e+02
-2.660009999800000173e+02
-2.660755972100000122e+02
-2.636711421900000119e+02
-2.638680653399999869e+02
-2.635271005800000239e+02
-2.660568017400000258e+02
-2.632027013599999918e+02
-2.663134883500000001e+02
-2.649154974799999991e+02
-2.658897570799999812e+02
-2.630707031000000029e+02
-2.623433535400000096e+02
-2.627680702499999938e+02
-2.628499624599999720e+02
-2.664698323900000219e+02
-2.637501245000000267e+02
-2.660780838000000017e+02
-2.656713949300000195e+02
-2.637329650199999946e+02
-2.643337644900000214e+02
-2.630805705999999873e+02
