3.688999999999999918e-02 8.252500000000000113e-02 5.334299999999999597e-01 -4.299600000000000088e-01 5.476290000000000324e-01 -1.100230000000000041e+00 -1.012149999999999994e-01 8.738899999999999446e-02 2.008469999999999978e-01 3.391099999999999670e-02 -1.933789999999999953e-01 -1.897159999999999958e-01 -3.621329999999999827e-01 5.337800000000000183e-02 2.149590000000000112e-01 3.758349999999999747e-01 -2.302999999999999926e-03 -1.734729999999999883e-01 3.898200000000000276e-02 6.158909999999999663e-01 1.496159999999999990e-01 -1.111000000000000043e-01 1.888610000000000011e-01 -9.543100000000000194e-02 -6.251719999999999500e-01 2.584290000000000198e-01 -1.429960000000000120e-01 -8.042000000000000259e-01 1.238439999999999958e-01 -1.671670000000000100e-01 1.262800000000000034e-02 -4.615529999999999911e-01 -6.356880000000000308e-01 2.629429999999999823e-01 -6.429059999999999775e-01 -3.073940000000000006e-01 1.304450000000000054e-01 8.336599999999999566e-02 -5.132090000000000263e-01 8.007849999999999691e-01 -6.203210000000000113e-01 -2.364229999999999943e-01 2.287289999999999879e-01 -3.429949999999999943e-01 -4.393299999999999983e-01 1.845019999999999993e-01 -2.939080000000000026e-01 9.102909999999999613e-01 9.296339999999999604e-01 -7.202279999999999793e-01 8.376839999999999842e-01 6.213389999999999747e-01 -2.768369999999999997e-01 8.095999999999999863e-01 -1.048449999999999938e-01 4.694000000000000256e-03 -1.343917000000000028e+00 2.066899999999999987e-02 2.248870000000000036e-01 3.798230000000000217e-01 4.341030000000000166e-01 7.745260000000000478e-01 -4.104889999999999928e-01 9.943200000000000649e-02 -4.850000000000000253e-04 5.981819999999999915e-01 -1.963189999999999935e-01 -5.385800000000000309e-02 -7.388989999999999725e-01 -2.322970000000000035e-01 1.946970000000000089e-01 7.771689999999999987e-01 -5.052159999999999984e-01 6.744040000000000035e-01 -5.948470000000000146e-01 5.691199999999999731e-02 -1.500259999999999927e-01 -2.020679999999999976e-01 3.110800000000000232e-01 -1.531510000000000093e-01 9.154290000000000482e-01 -5.058319999999999483e-01 -5.729900000000000271e-02 -1.808099999999999985e-02 3.244600000000000262e-02 7.135310000000000263e-01 5.660680000000000156e-01 1.282939999999999914e-01 1.646990000000000121e-01 -9.169999999999999549e-04 -9.658020000000000493e-01 -5.627480000000000260e-01 8.352669999999999817e-01 1.308590000000000031e-01 -1.551819999999999866e-01 -7.687150000000000372e-01 7.367100000000000037e-02 -1.055699999999999972e-01 3.506250000000000200e-01
-3.700330000000000008e-01 -2.032059999999999977e-01 -1.858319999999999972e-01 -5.813909999999999911e-01 -5.171820000000000306e-01 2.988870000000000138e-01 -3.382780000000000231e-01 -1.592939999999999912e-01 -3.310859999999999914e-01 -3.267240000000000144e-01 8.486499999999999599e-02 -1.243879999999999986e-01 -4.250380000000000269e-01 -2.198050000000000004e-01 -2.106339999999999879e-01 -4.372820000000000040e-01 -2.176839999999999886e-01 -1.652969999999999995e-01 -3.833590000000000053e-01 -2.560939999999999883e-01 -3.478970000000000118e-01 -4.164720000000000089e-01 -1.600999999999999993e-02 -2.564359999999999973e-01 -6.660900000000000154e-02 4.274609999999999799e-01 -2.112269999999999981e-01 -1.127319999999999989e-01 5.506159999999999943e-01 -3.821769999999999889e-01 -9.182800000000000684e-02 4.164840000000000209e-01 -3.450210000000000221e-01 8.201700000000000657e-02 3.220339999999999869e-01 -3.551309999999999745e-01 -3.180600000000000094e-02 6.356749999999999901e-01 -2.417060000000000042e-01 -7.981100000000000694e-02 4.661839999999999873e-01 -1.978129999999999888e-01 -6.612300000000000122e-02 4.002979999999999872e-01 -2.232490000000000030e-01 9.714299999999999324e-02 3.466190000000000104e-01 -3.558640000000000136e-01 -2.632639999999999980e-01 1.687950000000000006e-01 -4.878350000000000186e-01 1.795199999999999921e-02 -3.090379999999999794e-01 2.889419999999999766e-01 -8.124199999999999477e-02 -4.765280000000000071e-01 5.512920000000000043e-01 9.002000000000000279e-02 -4.469119999999999759e-01 3.575490000000000057e-01 -1.880149999999999877e-01 -6.178329999999999655e-01 1.850410000000000110e-01 1.422370000000000023e-01 -2.943810000000000038e-01 3.685410000000000075e-01 2.145970000000000100e-01 -2.076840000000000075e-01 2.447139999999999871e-01 5.859999999999999931e-02 -5.777409999999999490e-01 1.173069999999999946e-01 1.395750000000000046e-01 -4.317579999999999751e-01 3.502529999999999810e-01 4.727600000000000136e-01 1.169000000000000039e-01 3.449679999999999969e-01 8.445420000000000149e-01 -3.580900000000000055e-02 -7.063400000000000234e-02 5.255509999999999904e-01 4.316459999999999742e-01 3.668730000000000047e-01 4.779939999999999745e-01 1.851800000000000113e-01 2.126949999999999952e-01 2.032279999999999920e-01 -6.024800000000000294e-02 1.442630000000000023e-01 4.083200000000000163e-01 2.406339999999999868e-01 2.446349999999999913e-01 2.087880000000000014e-01 1.713409999999999933e-01 1.713760000000000006e-01 2.766830000000000123e-01 8.247599999999999376e-02 2.448929999999999996e-01
1.343519999999999992e-01 2.813109999999999777e-01 -3.121760000000000090e-01 9.336300000000000154e-02 3.519530000000000158e-01 -1.178768999999999956e+00 -2.777129999999999876e-01 8.699300000000000088e-02 6.336289999999999978e-01 -5.532920000000000060e-01 6.576549999999999896e-01 -6.123900000000000177e-02 -8.931909999999999572e-01 1.041779000000000011e+00 8.942649999999999766e-01 9.821469999999999922e-01 6.346000000000000529e-01 -1.846319999999999906e-01 8.981000000000000094e-01 5.887240000000000251e-01 4.491850000000000009e-01 3.232999999999999763e-01 1.539899999999999880e-01 4.165590000000000126e-01 -1.330027999999999988e+00 1.962999999999999901e-03 -1.282527999999999890e+00 -3.975029999999999952e-01 7.052779999999999605e-01 1.008795000000000108e+00 1.695760000000000045e-01 -3.644870000000000054e-01 6.081299999999999900e-02 -2.917600000000000193e-01 -1.430527000000000104e+00 4.072109999999999896e-01 1.032416000000000000e+00 -8.674690000000000456e-01 -1.735700999999999938e+00 7.832160000000000233e-01 -2.750690000000000079e-01 7.061260000000000314e-01 1.490039999999999976e-01 -9.559670000000000112e-01 -2.203579999999999983e-01 -8.229490000000000416e-01 -7.589110000000000023e-01 1.089212000000000069e+00 -1.362249999999999961e+00 5.433529999999999749e-01 2.834165000000000045e+00 -7.115930000000000311e-01 -1.301410000000000067e-01 2.034507000000000065e+00 2.628559999999999786e-01 1.649120000000000030e-01 -2.042689000000000199e+00 -2.311370000000000091e-01 1.076508999999999938e+00 2.313270000000000048e-01 1.010021999999999975e+00 7.759610000000000118e-01 -1.762723999999999958e+00 6.064119999999999511e-01 1.220015000000000072e+00 1.769158000000000008e+00 4.649209999999999732e-01 -8.442140000000000200e-01 -1.793886000000000092e+00 2.773249999999999882e-01 -2.667050000000000254e-01 -3.848289999999999766e-01 -1.128047000000000022e+00 1.445859999999999923e-01 -2.664435000000000109e+00 -5.968130000000000379e-01 1.163600000000000051e-02 4.802219999999999822e-01 -6.176199999999999746e-02 -2.298240000000000005e-01 -6.726929999999999854e-01 8.054449999999999665e-01 -7.311790000000000234e-01 2.679480000000000195e-01 -5.146060000000000079e-01 -1.476618999999999904e+00 7.773309999999999942e-01 5.500950000000000006e-01 -1.140136000000000038e+00 -1.155909999999999993e+00 7.849899999999999656e-01 3.340540000000000176e-01 -8.919699999999999851e-02 -4.088280000000000247e-01 4.908150000000000013e-01 4.038280000000000203e-01 2.539350000000000218e-01 2.051600000000000090e-01 1.077484000000000108e+00
4.053180000000000116e-01 -1.317782000000000009e+00 -1.438406000000000073e+00 -7.097430000000000128e-01 1.225621999999999989e+00 -2.590350000000000152e-01 -8.924109999999999543e-01 2.830769000000000091e+00 1.645729999999999971e-01 -1.242949000000000082e+00 -2.168267999999999862e+00 -1.048723999999999990e+00 -8.326940000000000452e-01 -1.306573999999999902e+00 -1.356524999999999981e+00 6.803820000000000423e-01 2.374092000000000091e+00 -1.330267000000000088e+00 1.662496999999999892e+00 1.716118000000000032e+00 8.926190000000000513e-01 4.124621000000000315e+00 -2.649029000000000078e+00 -1.051361999999999908e+00 -3.728250000000000175e-01 -1.078605000000000036e+00 -1.229492999999999947e+00 -7.267770000000000064e-01 1.947059999999999902e-01 1.353682000000000052e+00 -5.913899999999999713e-01 -3.436730000000000063e-01 1.744445000000000023e+00 4.050360000000000071e-01 -1.697303999999999924e+00 -7.196890000000000231e-01 2.493244999999999933e+00 5.061130000000000351e-01 3.097928000000000015e+00 1.256445999999999952e+00 1.500428000000000095e+00 1.034500000000000003e-01 -9.422800000000000620e-02 -5.004089999999999927e-01 3.057371999999999979e+00 6.039599999999999830e-02 -1.564753000000000061e+00 -5.022820000000000062e-01 -3.488899999999999779e-01 -2.427125999999999895e+00 1.658711999999999964e+00 -2.079254999999999853e+00 2.181690000000000018e-01 9.116680000000000339e-01 1.247859999999999941e-01 1.008853999999999917e+00 -3.848095999999999961e+00 3.488780000000000214e-01 1.033306999999999976e+00 -5.645310000000000050e-01 9.070899999999999519e-01 3.477979999999999960e-01 1.368905000000000038e+00 1.979953999999999992e+00 1.371439999999999881e-01 4.044150000000000245e-01 -1.880106999999999973e+00 2.355633999999999784e+00 -1.727970999999999924e+00 -2.094716000000000022e+00 -2.708490000000000064e-01 -3.690999999999999837e-01 -2.500490000000000212e-01 -1.600382999999999889e+00 -1.623745999999999912e+00 1.225967000000000029e+00 -5.787539999999999907e-01 6.125909999999999966e-01 1.978040000000000076e-01 6.795740000000000114e-01 1.261854000000000031e+00 -4.560060000000000224e-01 -8.829890000000000239e-01 2.933799999999999741e-01 -5.458999999999999964e-02 1.615974000000000022e+00 -4.723939999999999806e-01 -1.859410999999999925e+00 3.649689999999999879e-01 1.827050999999999981e+00 -6.466969999999999663e-01 1.028313000000000033e+00 -3.969263000000000208e+00 1.327941000000000038e+00 -9.941379999999999661e-01 4.261869999999999825e-01 -2.067623999999999906e+00 2.430539999999999923e-01 2.332053000000000154e+00
-9.719640000000000502e-01 -1.522561000000000053e+00 -6.970979999999999954e-01 -5.807390000000000052e-01 1.723339999999999872e-01 -3.879819999999999935e-01 3.946899999999999853e-01 -3.868480000000000252e-01 -5.337279999999999802e-01 -7.218280000000000252e-01 -1.377518000000000020e+00 -1.164079999999999976e-01 -1.391021000000000063e+00 4.152219999999999800e-01 -7.912930000000000241e-01 -1.237673999999999941e+00 -5.607419999999999627e-01 1.579442999999999930e+00 -7.441899999999999904e-02 -1.951640999999999959e+00 6.966539999999999955e-01 2.309999999999999901e-02 5.112039999999999917e-01 -1.299854000000000065e+00 -1.555565000000000087e+00 -5.260820000000000496e-01 -2.540966000000000058e+00 -6.085180000000000033e-01 -9.173399999999999610e-02 2.855010000000000048e+00 -1.508315999999999990e+00 -1.168899999999999939e-01 -6.630829999999999780e-01 5.664270000000000138e-01 -5.777240000000000153e-01 -4.402260000000000062e-01 4.052499000000000073e+00 2.328167000000000098e+00 -2.731739999999999724e-01 1.376144999999999952e+00 -1.199041000000000023e+00 -3.824179999999999802e-01 4.293339999999999934e-01 1.624160000000000048e+00 -1.689623000000000097e+00 -4.397750000000000270e-01 1.166442999999999897e+00 2.325143999999999878e+00 -1.411677000000000071e+00 -6.306619999999999449e-01 1.284537999999999958e+00 -3.788699999999999846e-01 -3.924729999999999830e+00 1.988979999999999970e+00 -2.806967999999999908e+00 -7.457880000000000065e-01 -5.878370000000000539e-01 9.476700000000000401e-02 1.773474999999999913e+00 2.499947000000000141e+00 -2.942498000000000058e+00 -3.534379999999999744e-01 2.211799999999999877e-01 -1.892465999999999982e+00 -1.110079999999999956e+00 7.266829999999999679e-01 1.229106000000000032e+00 1.294689999999999896e+00 -1.076476999999999906e+00 8.749590000000000423e-01 2.118549999999999878e-01 6.162490000000000467e-01 1.672183999999999893e+00 1.826826000000000061e+00 1.673175999999999997e+00 1.276259000000000032e+00 1.441665999999999892e+00 -1.857294999999999918e+00 4.654462999999999795e+00 1.805849000000000038e+00 5.492820000000000480e-01 1.390641999999999934e+00 1.199926999999999966e+00 -1.281360000000000054e+00 9.308980000000000032e-01 4.014679999999999915e-01 -2.318910000000000138e-01 2.316762999999999906e+00 1.963611999999999913e+00 -1.827048999999999923e+00 -1.048791999999999947e+00 8.635199999999999543e-01 1.567919999999999869e-01 -2.090955999999999815e+00 -1.906884999999999941e+00 -2.050628000000000117e+00 3.798099999999999810e-01 -2.018051999999999957e+00 1.555314000000000085e+00
-6.129400000000000404e-01 -4.359439999999999982e-01 -1.886499999999999982e-02 4.352090000000000125e-01 -5.920760000000000467e-01 -1.641709000000000085e+00 -7.114120000000000443e-01 -1.961249999999999938e-01 -3.237360000000000237e-01 -2.151329999999999909e-01 -7.609899999999999998e-02 -3.877680000000000016e-01 -1.620689999999999908e-01 -6.505199999999999871e-02 -3.017529999999999935e-01 -7.602050000000000196e-01 -2.233529999999999960e-01 -9.600200000000000400e-02 -9.431450000000000111e-01 -3.433550000000000213e-01 1.590219999999999967e-01 -8.156039999999999957e-01 -3.021700000000000080e-02 -2.042210000000000136e-01 -3.488649999999999807e-01 7.940899999999999626e-01 -2.123609999999999942e-01 -3.035939999999999750e-01 1.898440000000000127e-01 -1.958570000000000033e-01 -5.492559999999999665e-01 3.227140000000000009e-01 3.517600000000000171e-01 2.259099999999999997e-01 3.661449999999999982e-01 -7.802189999999999959e-01 1.897389999999999910e-01 8.831599999999999451e-01 2.700290000000000190e-01 -2.155930000000000069e-01 7.344789999999999930e-01 -3.015900000000000247e-01 -1.535960000000000103e-01 7.232619999999999605e-01 -1.982919999999999960e-01 1.117660000000000042e-01 1.039820000000000050e-01 3.324019999999999753e-01 -6.543339999999999712e-01 1.581760000000000110e-01 5.158300000000000107e-01 4.863699999999999968e-02 -5.777649999999999730e-01 5.263849999999999918e-01 2.588759999999999950e-01 -2.241479999999999861e-01 -7.244960000000000289e-01 5.705770000000000008e-01 -3.648609999999999909e-01 1.219039999999999901e+00 5.521350000000000424e-01 -2.753630000000000244e-01 -5.276009999999999867e-01 -3.223849999999999771e-01 -9.758999999999999897e-01 1.208617000000000052e+00 4.963119999999999754e-01 -4.438579999999999748e-01 -7.499620000000000175e-01 -4.994699999999999834e-02 -7.015289999999999582e-01 7.548369999999999802e-01 -1.006899999999999906e+00 -1.010140000000000066e-01 -1.207222000000000017e+00 2.725870000000000237e-01 2.621189999999999909e-01 1.201320000000000027e-01 5.478110000000000479e-01 1.707450000000000079e-01 6.807379999999999542e-01 8.492389999999999661e-01 2.095360000000000000e-01 -4.184000000000000219e-03 8.741729999999999778e-01 5.162219999999999587e-01 6.322699999999999987e-01 8.085240000000000204e-01 2.702060000000000017e-01 -3.018300000000000149e-02 5.338709999999999845e-01 -3.386179999999999746e-01 5.922610000000000374e-01 5.372179999999999733e-01 1.838629999999999987e-01 1.905820000000000014e-01 5.123950000000000449e-01 7.673399999999999666e-02 3.521170000000000133e-01
7.336200000000000498e-01 1.391000999999999932e+00 -1.247592000000000034e+00 -2.266599999999999865e-02 6.077759999999999829e-01 -3.006420000000000203e-01 -5.462690000000000046e-01 3.214147999999999783e+00 -4.901300000000000101e-01 -1.202280999999999933e+00 -6.232029999999999514e-01 1.000453999999999954e+00 -2.076525999999999872e+00 -6.189360000000000417e-01 1.461246999999999963e+00 2.464169999999999972e-01 1.411759999999999959e-01 9.600870000000000237e-01 5.442749999999999533e-01 -2.071528999999999954e+00 1.985630000000000006e+00 1.410860000000000003e+00 -1.501981999999999928e+00 2.696934999999999860e+00 9.402770000000000294e-01 5.101909999999999501e-01 -1.725324000000000080e+00 7.607279999999999598e-01 2.288498999999999839e+00 -1.187370999999999954e+00 -1.100217999999999918e+00 -2.363516000000000172e+00 -1.691351000000000049e+00 4.473690999999999640e+00 1.168304999999999927e+00 -2.004859000000000169e+00 -2.186058000000000057e+00 2.360844000000000165e+00 1.107714000000000087e+00 1.667073000000000027e+00 -3.165799999999999725e-01 -9.121770000000000156e-01 1.249392000000000058e+00 -4.286400000000000432e+00 -1.969071000000000016e+00 -1.517099999999999893e+00 -1.100055999999999923e+00 -1.406209999999999960e+00 5.419770000000000421e-01 -5.079690000000000039e-01 1.459889999999999910e+00 -9.941229999999999789e-01 2.606126000000000165e+00 5.102500000000000091e-02 -1.996707000000000010e+00 -4.903239999999999821e-01 -1.610751999999999962e+00 2.544175000000000075e+00 -6.445570000000000466e-01 2.898690000000000211e+00 1.165926999999999936e+00 -4.646230000000000082e-01 -2.334739999999999871e-01 2.236705999999999861e+00 3.230520000000000058e-01 8.462079999999999602e-01 4.768839999999999746e-01 2.576559999999999961e-01 8.701999999999999666e-03 -2.395035000000000025e+00 9.633730000000000349e-01 -2.728457999999999828e+00 -3.803907000000000149e+00 -7.552499999999999769e-01 3.572890000000000232e-01 -5.031250000000000444e-01 -1.710800000000000098e-01 9.947169999999999623e-01 -1.471359000000000083e+00 -1.580934000000000061e+00 -1.060804999999999998e+00 9.671889999999999654e-01 -2.710827000000000098e+00 1.885219999999999896e+00 -1.157148999999999983e+00 -7.674889999999999768e-01 4.270769999999999844e-01 6.044779999999999598e-01 2.919519999999999893e-01 1.734569000000000027e+00 1.297810000000000075e-01 8.836859999999999715e-01 -4.179649999999999754e-01 -9.306670000000000220e-01 1.202145000000000019e+00 -1.460519999999999874e-01 1.209738999999999898e+00 2.765322999999999976e+00 -7.432210000000000205e-01
1.788118000000000096e+00 -6.678530000000000300e-01 1.026989999999999986e-01 -4.540429999999999744e-01 -8.791590000000000238e-01 -5.707989999999999453e-01 -4.528179999999999983e-01 4.644550000000000067e-01 7.799329999999999874e-01 1.299999999999999886e-04 -7.632299999999999640e-01 3.393010000000000193e-01 -2.701250000000000040e-01 -1.146605000000000096e+00 2.845989999999999909e-01 7.845020000000000326e-01 -8.034559999999999480e-01 7.194549999999999557e-01 -8.724359999999999893e-01 1.512920000000000098e-01 7.972999999999999532e-02 -4.956400000000000250e-01 9.893880000000000452e-01 -1.735879999999999923e-01 -1.857288000000000050e+00 1.079156000000000004e+00 1.762219999999999898e-01 -5.934299999999999992e-02 4.082720000000000238e-01 4.315379999999999772e-01 4.284430000000000183e-01 -4.792950000000000266e-01 -1.087866000000000000e+00 4.141349999999999754e-01 -4.883020000000000138e-01 1.169083000000000094e+00 -1.359550000000000036e+00 4.421610000000000262e-01 -2.034682999999999797e+00 -9.509570000000000523e-01 -5.065070000000000405e-01 -1.466922999999999977e+00 1.755633999999999917e+00 1.604122999999999966e+00 -1.171724999999999905e+00 -3.847000000000000159e-03 -3.066189999999999749e-01 2.278086000000000055e+00 1.600894999999999957e+00 -1.671920999999999990e+00 2.729385000000000172e+00 1.744267000000000012e+00 -4.962469999999999937e-01 1.966104999999999992e+00 -5.776040000000000063e-01 7.296949999999999825e-01 -3.212126000000000037e+00 2.629219999999999891e-01 -7.684069999999999512e-01 2.005504999999999871e+00 -1.600459999999999938e-01 8.151519999999999877e-01 -3.452246000000000148e+00 8.602779999999999871e-01 -6.274220000000000352e-01 1.214040999999999926e+00 1.044230999999999909e+00 -1.367819999999999869e-01 -5.932910000000000128e-01 -1.633321000000000023e+00 -1.329533999999999994e+00 1.959640999999999966e+00 1.376699999999999972e-02 1.492259999999999920e+00 -2.259395000000000042e+00 -1.312442000000000109e+00 1.571034000000000042e+00 -2.324085000000000178e+00 -1.021255999999999942e+00 2.525974000000000164e+00 4.785610000000000142e-01 -8.723539999999999628e-01 -7.785680000000000378e-01 3.725870000000000015e-01 -8.215120000000000200e-01 1.541139999999999954e+00 4.680509999999999948e-01 1.706930000000000114e-01 8.782480000000000286e-01 -3.566710000000000158e-01 9.585550000000000459e-01 -1.487463999999999897e+00 1.649075000000000069e+00 1.440587999999999980e+00 -9.245409999999999462e-01 -8.296590000000000353e-01 -9.257700000000000651e-02 -4.304370000000000140e-01 3.294590000000000019e-01
-2.125420000000000087e-01 1.190250000000000058e-01 -1.081590000000000051e-01 -5.604249999999999510e-01 4.012990000000000168e-01 -1.413956999999999908e+00 3.001329999999999831e-01 -7.063899999999999346e-02 -1.703770000000000007e-01 -6.677700000000000302e-02 1.410699999999999975e-02 -5.704700000000000049e-02 1.463000000000000108e-03 2.211999999999999991e-03 -5.116619999999999502e-01 1.608529999999999960e-01 4.368799999999999767e-02 5.883279999999999621e-01 -1.035849999999999965e-01 -1.299929999999999974e-01 -3.315770000000000106e-01 6.793599999999999639e-02 -1.379070000000000018e-01 -6.119740000000000180e-01 -2.704400000000000137e-01 3.608029999999999848e-01 -4.050349999999999784e-01 -2.859200000000000075e-01 2.507670000000000177e-01 2.246360000000000023e-01 -6.749800000000000244e-02 -1.118592000000000031e+00 -3.829509999999999859e-01 -1.992190000000000072e-01 -5.913249999999999895e-01 1.739670000000000105e-01 7.378280000000000394e-01 6.378310000000000368e-01 -5.858780000000000099e-01 4.664849999999999830e-01 3.303240000000000065e-01 2.263630000000000086e-01 -5.548070000000000501e-01 9.829799999999999649e-02 -4.166179999999999883e-01 5.488809999999999523e-01 -3.550200000000000022e-01 1.127712000000000048e+00 7.767680000000000140e-01 -8.134399999999999964e-02 1.452509999999999968e+00 2.541300000000000156e-02 -8.884300000000000530e-02 1.161156999999999995e+00 -5.825939999999999452e-01 1.126520000000000021e-01 -9.585120000000000307e-01 2.667260000000000186e-01 1.526069999999999927e-01 9.089040000000000452e-01 -7.539099999999999968e-02 5.305200000000000193e-02 -1.160611000000000059e+00 -3.554600000000000121e-02 -1.784449999999999925e-01 1.045703000000000049e+00 -5.277400000000000146e-02 1.145339999999999969e-01 -1.436935999999999991e+00 2.935499999999999776e-01 -2.091220000000000023e-01 8.008020000000000138e-01 1.554699999999999971e-01 2.592240000000000100e-01 -1.137453000000000047e+00 -8.623799999999999522e-02 5.632299999999999807e-02 1.402519999999999878e-01 1.526990000000000014e-01 -4.297750000000000181e-01 4.465250000000000052e-01 -1.631849999999999967e-01 -1.221970000000000001e-01 -2.052750000000000130e-01 -6.340500000000000302e-02 5.074140000000000317e-01 5.480319999999999636e-01 1.991229999999999944e-01 3.920879999999999921e-01 -2.106979999999999964e-01 -6.513330000000000508e-01 -4.160780000000000034e-01 5.853599999999999914e-01 1.655500000000000027e-02 -2.404199999999999948e-01 -3.542879999999999918e-01 -1.382039999999999935e-01 2.634529999999999927e-01 1.028756000000000004e+00
-1.195559999999999956e-01 2.856500000000000011e-02 5.145640000000000214e-01 -1.836451999999999973e+00 1.195386000000000060e+00 1.441947000000000090e+00 2.368480000000000030e-01 3.456300000000000344e-02 -1.500489999999999879e-01 1.903160000000000129e-01 6.842600000000000071e-02 -3.608100000000000196e-01 -3.021400000000000127e-02 1.569240000000000079e-01 9.400600000000000622e-02 4.111700000000000077e-02 1.389100000000000057e-02 -1.317450000000000010e-01 5.067930000000000490e-01 2.182320000000000093e-01 -5.486959999999999615e-01 1.254359999999999919e-01 1.639309999999999934e-01 -2.011599999999999847e-02 -6.718750000000000000e-01 1.866400000000000003e-01 -2.294990000000000085e-01 -4.220299999999999746e-02 -2.586600000000000010e-01 2.797749999999999959e-01 3.384240000000000026e-01 -6.723240000000000327e-01 -6.082210000000000116e-01 -1.867070000000000118e-01 -7.303129999999999900e-01 2.120650000000000035e-01 5.667429999999999968e-01 1.181539999999999951e-01 -6.856689999999999729e-01 2.124669999999999892e-01 3.608330000000000148e-01 6.437230000000000452e-01 -1.023960000000000009e-01 -1.568809999999999927e-01 -7.817129999999999912e-01 -4.241500000000000131e-02 -5.528250000000000108e-01 8.966140000000000221e-01 2.329928999999999917e+00 -9.911410000000000498e-01 -1.770704999999999973e+00 -1.139740000000000059e-01 1.593400000000000025e-02 1.695896999999999988e+00 -3.988140000000000018e-01 3.534249999999999892e-01 -1.469262000000000068e+00 -1.305749999999999966e-01 -9.213999999999999968e-03 7.124679999999999902e-01 1.234760000000000024e-01 8.025130000000000319e-01 -8.210969999999999658e-01 4.263140000000000263e-01 1.446939999999999893e-01 7.229349999999999943e-01 -2.212220000000000020e-01 -2.881589999999999985e-01 -1.016243000000000007e+00 -4.770900000000000141e-02 3.045089999999999741e-01 1.078799000000000063e+00 -2.050279999999999880e-01 2.259909999999999974e-01 -9.837310000000000221e-01 4.222399999999999765e-02 -5.381699999999999678e-02 -8.238280000000000047e-01 -5.696999999999999981e-02 2.385579999999999923e-01 9.947439999999999616e-01 -3.012340000000000018e-01 -2.425180000000000113e-01 -1.273120000000000085e-01 -3.152499999999999747e-01 -6.953319999999999501e-01 3.805209999999999981e-01 -1.755440000000000056e-01 -9.273199999999999499e-02 -2.729289999999999772e-01 4.585499999999999993e-02 2.374020000000000019e-01 3.133070000000000022e-01 -8.987799999999999956e-02 9.733600000000000585e-02 -9.268300000000000149e-02 -9.792499999999999816e-02 -2.219899999999999929e-01 9.129450000000000065e-01
9.140819999999999501e-01 1.563404000000000016e+00 -4.866980000000000195e-01 -8.162700000000000511e-02 6.343039999999999790e-01 -1.677068999999999921e+00 -8.450100000000000666e-02 1.337517000000000067e+00 -2.896699999999999969e-02 -7.330229999999999801e-01 -1.137116000000000016e+00 1.992089999999999972e-01 -5.035450000000000204e-01 1.224906999999999968e+00 -8.266539999999999999e-01 1.633048000000000055e+00 -1.976116999999999901e+00 -1.173824999999999896e+00 -2.877040000000000153e-01 -1.013627999999999973e+00 1.941616999999999926e+00 2.356380000000000141e+00 -2.995966999999999825e+00 6.532369999999999566e-01 4.094280000000000141e-01 1.272763000000000089e+00 -1.542988999999999944e+00 -3.050500000000000086e-02 7.750369999999999759e-01 -6.282739999999999991e-01 1.113016000000000005e+00 2.066368999999999900e+00 -2.700931999999999888e+00 2.950059999999999905e-01 7.699949999999999850e-01 -8.153000000000000524e-02 -2.008602999999999916e+00 2.830846000000000195e+00 1.487940000000000040e+00 -1.581363000000000074e+00 3.928349999999999898e-01 -1.403880999999999935e+00 -5.234940000000000149e-01 2.067164000000000001e+00 -5.735369999999999635e-01 -2.007998999999999867e+00 -3.656789999999999763e-01 -2.032744000000000106e+00 -1.937888000000000055e+00 7.482600000000000362e-02 -2.019995999999999903e+00 -1.145991999999999900e+00 -2.561326000000000214e+00 3.555741999999999958e+00 -1.168010000000000020e-01 1.130937999999999999e+00 -1.353590000000000071e-01 2.116395999999999944e+00 -1.548145000000000104e+00 -3.624089999999999812e-01 1.123305999999999916e+00 -1.383747000000000060e+00 -6.082680000000000309e-01 2.185747000000000106e+00 -2.057287999999999784e+00 2.228267999999999915e+00 2.329070000000000029e-01 9.583129999999999704e-01 -3.504240000000000133e-01 -7.892970000000000264e-01 -1.015486000000000111e+00 2.051912999999999876e+00 4.723060000000000036e-01 -1.608667000000000069e+00 1.951171999999999906e+00 4.835119999999999973e-01 -2.218163000000000107e+00 1.787941000000000003e+00 7.634619999999999740e-01 7.407199999999999895e-02 6.586680000000000312e-01 5.458389999999999631e-01 -5.175149999999999473e-01 -1.715751999999999944e+00 1.833382999999999985e+00 7.259630000000000249e-01 1.426039999999999974e+00 -2.962969999999999771e-01 -1.681867000000000001e+00 4.203310000000000102e-01 -3.290509999999999824e-01 1.111140000000000017e+00 -2.479630999999999919e+00 -9.653399999999999481e-02 2.217060000000000031e+00 7.789679999999999938e-01 -3.923595999999999862e+00 8.532579999999999609e-01 1.687893000000000088e+00