6.466688482000000349e+00 0.000000000000000000e+00 0.000000000000000000e+00 1.676077641000000007e+00 8.473248203000000700e+00 0.000000000000000000e+00 4.501851700000000095e-02 1.005563260000000014e-01 8.381871549999999615e+00
6.471145858999999945e+00 0.000000000000000000e+00 0.000000000000000000e+00 1.946303450000000046e+00 8.473299743000000106e+00 0.000000000000000000e+00 4.368088400000000315e-02 -4.476166200000000067e-02 8.423821532999999917e+00
6.489998604000000171e+00 0.000000000000000000e+00 0.000000000000000000e+00 1.668196629000000097e+00 8.356914045999999985e+00 0.000000000000000000e+00 -1.017968989999999962e-01 -1.387078740000000088e-01 8.487748322999999928e+00
6.380191829000000148e+00 0.000000000000000000e+00 0.000000000000000000e+00 1.764348173999999991e+00 8.343382946000000189e+00 0.000000000000000000e+00 -2.972428699999999854e-02 3.318861399999999823e-02 8.173500840000000878e+00
6.507742900000000219e+00 0.000000000000000000e+00 0.000000000000000000e+00 1.662726485000000087e+00 8.425167068000000370e+00 0.000000000000000000e+00 -1.896087499999999856e-02 -7.640197999999999955e-03 8.389331835000000126e+00
6.501013159000000208e+00 0.000000000000000000e+00 0.000000000000000000e+00 1.654048763000000033e+00 8.622180457000000686e+00 0.000000000000000000e+00 1.271768570000000043e-01 5.557068000000000077e-03 8.478033049000000432e+00
6.377618223999999891e+00 0.000000000000000000e+00 0.000000000000000000e+00 1.514896146000000110e+00 8.429418138999999144e+00 0.000000000000000000e+00 1.208788680000000004e-01 1.503736599999999993e-02 8.170513526000000581e+00
6.498268011999999594e+00 0.000000000000000000e+00 0.000000000000000000e+00 1.646059504999999978e+00 8.487906791000000339e+00 0.000000000000000000e+00 2.625636099999999890e-02 6.277119700000000080e-02 8.255389568000000011e+00
6.501460688999999959e+00 0.000000000000000000e+00 0.000000000000000000e+00 1.931311411000000033e+00 8.469135370000000052e+00 0.000000000000000000e+00 9.096734099999999323e-02 1.795869500000000021e-02 8.857510997000000330e+00
6.450170625000000157e+00 0.000000000000000000e+00 0.000000000000000000e+00 1.775278695999999989e+00 8.505805817000000602e+00 0.000000000000000000e+00 -2.200309300000000134e-01 1.793840260000000020e-01 8.795936453999999571e+00
6.291948427000000343e+00 0.000000000000000000e+00 0.000000000000000000e+00 1.553350946999999982e+00 8.085881567999999575e+00 0.000000000000000000e+00 -5.451880399999999710e-02 -2.593932620000000133e-01 1.029106002099999984e+01
6.380208005000000071e+00 0.000000000000000000e+00 0.000000000000000000e+00 1.598610585999999945e+00 8.498794926000000416e+00 0.000000000000000000e+00 -1.840777899999999911e-02 -2.112736499999999865e-02 8.675027627000000408e+00
6.457761256999999588e+00 0.000000000000000000e+00 0.000000000000000000e+00 1.412499202000000009e+00 8.416506972000000530e+00 0.000000000000000000e+00 1.294939390000000023e-01 -9.029692699999999905e-02 8.386612898999999288e+00
6.106250947000000373e+00 0.000000000000000000e+00 0.000000000000000000e+00 1.489912329000000035e+00 7.996527160000000300e+00 0.000000000000000000e+00 -2.795303700000000002e-02 -3.286829399999999929e-02 1.002581255399999982e+01
6.358663789999999594e+00 0.000000000000000000e+00 0.000000000000000000e+00 1.538410703999999907e+00 8.361956070999999824e+00 0.000000000000000000e+00 1.153579359999999943e-01 8.027737699999999699e-02 9.275767576999999875e+00
6.373135967999999707e+00 0.000000000000000000e+00 0.000000000000000000e+00 1.654497590999999934e+00 8.313075136000000143e+00 0.000000000000000000e+00 4.937820500000000140e-02 1.480625909999999934e-01 8.250383663999999229e+00
6.588128400000000440e+00 0.000000000000000000e+00 0.000000000000000000e+00 -5.063333478999999748e+00 8.405939054999999271e+00 0.000000000000000000e+00 4.615895000000000067e-03 1.100973400000000019e-02 8.191875021999999618e+00
6.479983408999999916e+00 0.000000000000000000e+00 0.000000000000000000e+00 1.586741375999999981e+00 8.385383777999999566e+00 0.000000000000000000e+00 -1.268172799999999975e-02 -5.753191700000000186e-02 8.308090855999999746e+00
6.508315622999999661e+00 0.000000000000000000e+00 0.000000000000000000e+00 1.688632719999999976e+00 8.552170590999999433e+00 0.000000000000000000e+00 3.201830600000000332e-02 4.338853000000000154e-02 8.481263047000000554e+00
6.268293716999999710e+00 0.000000000000000000e+00 0.000000000000000000e+00 1.534794766000000088e+00 8.125601797999999931e+00 0.000000000000000000e+00 -3.534581199999999729e-02 4.766566800000000131e-02 9.867920938999999336e+00
6.496310477999999833e+00 0.000000000000000000e+00 0.000000000000000000e+00 1.465873532000000035e+00 8.465687251000000302e+00 0.000000000000000000e+00 -2.046571939999999867e-01 1.170692140000000048e-01 8.571938468999999117e+00
6.510338117999999952e+00 0.000000000000000000e+00 0.000000000000000000e+00 1.605976112000000011e+00 8.486934193999999820e+00 0.000000000000000000e+00 -8.749360999999999944e-02 8.502708400000000277e-02 8.484247283000000195e+00
6.601908660000000317e+00 0.000000000000000000e+00 0.000000000000000000e+00 1.766109659999999915e+00 8.488548269000000701e+00 0.000000000000000000e+00 -1.006142900000000021e-02 -7.861348000000000641e-03 8.228722788000000676e+00
6.320660568000000090e+00 0.000000000000000000e+00 0.000000000000000000e+00 1.546887861999999947e+00 8.365574254000000209e+00 0.000000000000000000e+00 1.204411440000000000e-01 1.965366689999999972e-01 9.077588147000000163e+00
6.570730979000000360e+00 0.000000000000000000e+00 0.000000000000000000e+00 1.743539079999999908e+00 8.536178568000000411e+00 0.000000000000000000e+00 3.001819000000000189e-03 3.030796599999999869e-02 8.241897327000000217e+00
6.452609580999999928e+00 0.000000000000000000e+00 0.000000000000000000e+00 1.580213883000000097e+00 8.391018144000000234e+00 0.000000000000000000e+00 -3.297565999999999692e-02 -1.124756830000000069e-01 8.338689169000000234e+00
6.518754132999999840e+00 0.000000000000000000e+00 0.000000000000000000e+00 1.589056661999999953e+00 8.474900601999999949e+00 0.000000000000000000e+00 -5.284570300000000082e-02 -1.234624790000000000e-01 8.397636231999999978e+00
6.539098221999999794e+00 0.000000000000000000e+00 0.000000000000000000e+00 1.757670641999999894e+00 8.580741794999999783e+00 0.000000000000000000e+00 1.646671800000000171e-02 1.849537199999999951e-02 8.135333149999999236e+00
6.604521955000000055e+00 0.000000000000000000e+00 0.000000000000000000e+00 1.661358914000000020e+00 8.499826998999999716e+00 0.000000000000000000e+00 7.209490699999999974e-02 8.462867999999999780e-02 8.352252758000000554e+00
6.118377781000000404e+00 0.000000000000000000e+00 0.000000000000000000e+00 1.300833767000000085e+00 8.196831826000000376e+00 0.000000000000000000e+00 2.298020400000000060e-02 2.373101400000000166e-02 9.745842148999999566e+00
6.507661470000000392e+00 0.000000000000000000e+00 0.000000000000000000e+00 1.773603609000000025e+00 8.506860500000000158e+00 0.000000000000000000e+00 1.716486989999999879e-01 -1.194983419999999935e-01 8.351553682000000478e+00
6.451482847000000298e+00 0.000000000000000000e+00 0.000000000000000000e+00 1.599111010000000110e+00 8.526729326999999969e+00 0.000000000000000000e+00 -9.479756000000000640e-03 -1.233127099999999955e-02 8.750287156000000621e+00
6.400592681000000006e+00 0.000000000000000000e+00 0.000000000000000000e+00 1.655419377999999941e+00 8.514584316000000541e+00 0.000000000000000000e+00 1.691306680000000118e-01 2.249170299999999831e-02 8.277777668000000588e+00
6.524116687000000248e+00 0.000000000000000000e+00 0.000000000000000000e+00 1.616392115000000018e+00 8.302037918999999988e+00 0.000000000000000000e+00 -1.716933140000000135e-01 -2.054021699999999950e-02 8.475046889999999777e+00
6.252242708999999898e+00 0.000000000000000000e+00 0.000000000000000000e+00 1.605952456000000028e+00 8.243532696000000826e+00 0.000000000000000000e+00 -5.133061399999999663e-02 1.096200299999999968e-02 9.738881880999999296e+00
6.452666568999999797e+00 0.000000000000000000e+00 0.000000000000000000e+00 1.578712252000000094e+00 8.397603323000000231e+00 0.000000000000000000e+00 2.866222300000000056e-02 3.507675500000000113e-02 8.269068725000000342e+00
6.544115235999999669e+00 0.000000000000000000e+00 0.000000000000000000e+00 1.776164515000000055e+00 8.484498464999999712e+00 0.000000000000000000e+00 4.108668000000000216e-03 -6.379947000000000396e-03 8.139321429000000663e+00
6.474091304999999963e+00 0.000000000000000000e+00 0.000000000000000000e+00 1.531356973000000066e+00 8.470689220000000574e+00 0.000000000000000000e+00 5.945098000000000223e-03 9.401873999999999301e-03 8.613644229000000152e+00
6.416144082999999831e+00 0.000000000000000000e+00 0.000000000000000000e+00 1.698136464000000068e+00 8.428805870999999783e+00 0.000000000000000000e+00 -2.964964820000000056e-01 2.450498949999999898e-01 8.396792892000000563e+00
6.467153427000000399e+00 0.000000000000000000e+00 0.000000000000000000e+00 1.371360276000000100e+00 8.369652794000000284e+00 0.000000000000000000e+00 2.477724380000000115e-01 -1.993658040000000076e-01 8.277535096999999453e+00
6.411995635000000249e+00 0.000000000000000000e+00 0.000000000000000000e+00 1.484151463999999976e+00 8.370412351000000584e+00 0.000000000000000000e+00 6.851239200000000529e-02 -3.034192100000000086e-02 8.358993897999999589e+00
6.470715937999999667e+00 0.000000000000000000e+00 0.000000000000000000e+00 1.640934571999999925e+00 8.464189595000000566e+00 0.000000000000000000e+00 -2.668308299999999980e-02 -1.050072920000000021e-01 8.336206382000000303e+00
6.492999393999999924e+00 0.000000000000000000e+00 0.000000000000000000e+00 1.489075933999999934e+00 8.441600044999999497e+00 0.000000000000000000e+00 -9.783764899999999876e-02 1.061949449999999989e-01 8.356644192999999277e+00
6.208646640000000438e+00 0.000000000000000000e+00 0.000000000000000000e+00 1.540379686000000081e+00 8.040377946999999637e+00 0.000000000000000000e+00 -2.432067900000000130e-02 5.593537900000000035e-02 9.970842286999999970e+00
6.716042500000000359e+00 0.000000000000000000e+00 0.000000000000000000e+00 1.565256353000000100e+00 8.677561433999999352e+00 0.000000000000000000e+00 -1.209999769999999947e-01 -2.161839849999999952e-01 8.524698363000000612e+00
6.519302259999999904e+00 0.000000000000000000e+00 0.000000000000000000e+00 1.777934448999999972e+00 8.568118529999999566e+00 0.000000000000000000e+00 6.103851999999999889e-03 1.490899300000000059e-02 8.211649008000000194e+00
6.534123850000000289e+00 0.000000000000000000e+00 0.000000000000000000e+00 1.832991020999999998e+00 8.511381145999999731e+00 0.000000000000000000e+00 1.242959129999999940e-01 -9.099040799999999485e-02 8.376490644000000430e+00
6.522197342000000120e+00 0.000000000000000000e+00 0.000000000000000000e+00 1.500340848000000005e+00 8.502070159000000515e+00 0.000000000000000000e+00 -1.520002990000000054e-01 1.187604879999999974e-01 8.496540340999999330e+00
6.785827534000000050e+00 0.000000000000000000e+00 0.000000000000000000e+00 1.631202792999999929e+00 8.682018100000000516e+00 0.000000000000000000e+00 -9.061096800000000007e-02 -1.691826929999999951e-01 8.430538675999999398e+00
6.448438484999999609e+00 0.000000000000000000e+00 0.000000000000000000e+00 1.588345083999999963e+00 8.301438689999999454e+00 0.000000000000000000e+00 -4.884617299999999968e-02 -1.259093059999999986e-01 8.417973247000000825e+00
