1.482420000000000071e+00 9.685099999999999820e-01 3.021799999999999820e+00 1.686830000000000052e+00 1.034329999999999972e+00 7.454489999999999839e+00 6.487370000000000303e+00 3.852269999999999861e+00 3.061980000000000146e+00 6.490960000000000285e+00 3.900830000000000020e+00 7.176219999999999821e+00 4.880099999999999660e+00 6.743610000000000326e+00 3.225699999999999790e+00 4.995190000000000019e+00 6.710650000000000226e+00 7.398100000000000342e+00 4.898220000000000240e+00 8.985999999999999543e-01 3.190339999999999954e+00 4.891440000000000232e+00 1.069609999999999950e+00 7.234609999999999985e+00 3.276949999999999807e+00 3.763069999999999915e+00 3.164219999999999811e+00 3.176060000000000105e+00 3.926629999999999843e+00 7.397350000000000314e+00 1.624100000000000099e+00 6.654759999999999565e+00 3.010019999999999918e+00 6.506339999999999790e+00 1.914080000000000004e+00 1.017039999999999944e+00 6.419290000000000163e+00 2.056039999999999868e+00 5.131669999999999732e+00 4.967839999999999812e+00 4.511449999999999960e+00 9.453700000000000436e-01 4.880230000000000068e+00 4.715849999999999653e+00 5.269560000000000244e+00 3.513310000000000155e+00 7.385930000000000106e+00 1.110170000000000101e+00 3.299399999999999888e+00 7.627209999999999823e+00 5.171949999999999825e+00 3.165929999999999911e+00 1.954930000000000057e+00 1.038980000000000015e+00 3.237779999999999880e+00 1.996820000000000039e+00 5.298009999999999664e+00 1.738590000000000080e+00 4.591529999999999667e+00 1.009570000000000078e+00 1.689510000000000067e+00 4.664760000000000240e+00 5.294870000000000410e+00 6.523019999999999818e+00 7.540309999999999846e+00 1.042410000000000059e+00 6.637059999999999960e+00 7.547139999999999738e+00 5.271600000000000286e+00 1.569399999999999906e+00 8.786899999999999711e-01 1.144640000000000102e+00 1.666139999999999954e+00 9.873899999999999899e-01 5.512819999999999609e+00 6.586330000000000240e+00 3.785470000000000113e+00 1.201610000000000067e+00 6.577239999999999753e+00 3.876889999999999947e+00 5.287899999999999601e+00 4.982510000000000439e+00 6.431169999999999831e+00 9.049599999999999866e-01 5.009949999999999903e+00 6.480150000000000077e+00 5.269199999999999662e+00 4.858189999999999564e+00 9.227199999999999847e-01 1.139999999999999902e+00 4.889479999999999826e+00 1.083520000000000039e+00 5.302710000000000257e+00 3.292689999999999895e+00 3.763459999999999805e+00 8.661400000000000210e-01 3.348380000000000134e+00 3.751189999999999802e+00 5.136239999999999917e+00 1.727670000000000039e+00 6.583249999999999602e+00 9.378100000000000325e-01 1.848139999999999894e+00 6.576450000000000351e+00 5.402420000000000222e+00 6.523469999999999658e+00 1.990019999999999900e+00 3.395000000000000018e+00 6.488470000000000404e+00 2.158770000000000078e+00 7.541879999999999917e+00 4.857540000000000191e+00 4.797430000000000305e+00 3.211479999999999890e+00 4.857569999999999943e+00 4.816849999999999632e+00 7.180649999999999977e+00 3.111639999999999961e+00 7.614589999999999748e+00 3.094180000000000152e+00 3.373889999999999834e+00 7.538750000000000284e+00 7.246669999999999945e+00 3.204740000000000144e+00 1.870170000000000110e+00 2.999220000000000219e+00 3.199580000000000091e+00 2.102040000000000131e+00 7.369900000000000340e+00 1.637450000000000072e+00 4.821519999999999584e+00 3.052029999999999799e+00 1.578999999999999959e+00 4.872489999999999988e+00 7.316480000000000317e+00 6.583680000000000199e+00 7.627900000000000347e+00 2.964379999999999793e+00 6.526080000000000325e+00 7.650809999999999889e+00 7.265480000000000160e+00
1.546559999999999935e+00 9.036199999999999788e-01 3.028770000000000184e+00 1.681270000000000042e+00 8.120199999999999640e-01 7.300370000000000026e+00 6.615859999999999630e+00 3.789550000000000196e+00 3.092360000000000220e+00 6.731270000000000309e+00 3.659949999999999815e+00 7.387900000000000134e+00 5.024239999999999817e+00 6.755460000000000242e+00 3.083070000000000199e+00 5.364700000000000024e+00 6.524359999999999715e+00 7.348849999999999660e+00 4.822259999999999991e+00 1.098610000000000086e+00 3.291389999999999816e+00 4.935660000000000380e+00 8.366000000000000103e-01 7.468860000000000277e+00 3.565269999999999939e+00 3.632050000000000001e+00 3.117269999999999985e+00 3.614790000000000170e+00 3.818280000000000118e+00 7.394790000000000418e+00 1.810000000000000053e+00 6.564799999999999969e+00 3.079099999999999948e+00 6.516239999999999810e+00 1.870020000000000016e+00 9.962299999999999489e-01 6.619670000000000165e+00 1.802880000000000038e+00 5.230949999999999989e+00 4.929660000000000153e+00 4.664869999999999628e+00 1.044200000000000017e+00 5.160820000000000185e+00 4.787959999999999994e+00 5.231900000000000439e+00 3.487880000000000091e+00 7.505729999999999791e+00 1.059819999999999984e+00 3.517809999999999881e+00 7.535770000000000302e+00 5.281159999999999854e+00 3.063250000000000028e+00 1.969440000000000079e+00 9.590100000000000291e-01 3.282439999999999802e+00 1.926639999999999908e+00 5.382810000000000095e+00 1.800559999999999938e+00 4.578820000000000334e+00 1.046259999999999968e+00 1.885170000000000012e+00 4.875029999999999752e+00 5.353720000000000034e+00 6.958540000000000170e+00 7.582799999999999763e+00 1.238569999999999949e+00 6.807559999999999611e+00 7.335219999999999629e+00 5.279709999999999681e+00 1.618470000000000075e+00 9.138500000000000512e-01 1.038140000000000063e+00 1.737209999999999921e+00 8.600999999999999757e-01 5.100430000000000241e+00 6.568909999999999805e+00 3.707800000000000207e+00 1.174090000000000078e+00 6.775319999999999787e+00 3.679120000000000168e+00 5.379319999999999879e+00 5.117729999999999890e+00 6.560319999999999929e+00 1.078710000000000058e+00 5.165659999999999918e+00 6.458339999999999748e+00 5.369869999999999699e+00 4.913350000000000328e+00 9.111000000000000210e-01 9.696700000000000319e-01 4.984259999999999913e+00 7.849300000000000166e-01 5.239589999999999748e+00 3.427090000000000192e+00 3.914359999999999840e+00 1.040880000000000027e+00 3.358060000000000045e+00 3.866060000000000052e+00 5.217179999999999929e+00 1.938790000000000013e+00 6.520170000000000243e+00 1.145729999999999915e+00 1.930090000000000083e+00 6.633429999999999715e+00 5.094159999999999577e+00 6.437420000000000364e+00 1.829800000000000093e+00 2.898140000000000160e+00 6.586909999999999599e+00 1.664560000000000040e+00 7.262629999999999697e+00 4.917150000000000354e+00 4.762850000000000250e+00 3.193350000000000133e+00 5.199349999999999916e+00 4.669710000000000250e+00 7.224719999999999587e+00 3.447490000000000165e+00 7.646010000000000417e+00 3.208769999999999900e+00 3.482850000000000001e+00 7.467789999999999928e+00 7.474969999999999892e+00 3.193579999999999863e+00 1.837520000000000042e+00 3.214319999999999844e+00 3.213379999999999903e+00 1.806759999999999922e+00 7.513460000000000250e+00 1.781009999999999982e+00 4.729250000000000398e+00 3.089830000000000076e+00 1.983260000000000023e+00 4.818410000000000082e+00 7.419850000000000279e+00 6.747460000000000235e+00 7.716199999999999726e+00 3.206409999999999982e+00 6.945260000000000211e+00 7.239589999999999748e+00 7.528889999999999638e+00
1.586070000000000091e+00 8.265200000000000324e-01 3.241760000000000197e+00 1.483260000000000023e+00 8.682999999999999607e-01 7.456070000000000420e+00 6.488249999999999851e+00 3.701029999999999820e+00 3.379690000000000083e+00 6.404230000000000089e+00 3.636750000000000149e+00 7.448590000000000266e+00 4.842819999999999681e+00 6.439350000000000129e+00 3.150689999999999991e+00 4.820090000000000430e+00 6.407269999999999577e+00 7.410989999999999966e+00 4.855179999999999829e+00 8.398900000000000254e-01 3.053679999999999950e+00 4.779289999999999594e+00 8.152099999999999902e-01 7.490490000000000315e+00 3.200899999999999856e+00 3.751990000000000158e+00 3.208600000000000119e+00 3.256250000000000089e+00 3.528300000000000214e+00 7.439029999999999809e+00 1.666230000000000100e+00 6.420519999999999783e+00 3.143619999999999859e+00 6.539579999999999949e+00 1.893720000000000070e+00 1.130360000000000031e+00 6.395850000000000257e+00 1.703440000000000065e+00 5.365980000000000416e+00 4.916900000000000048e+00 4.582329999999999792e+00 1.070529999999999982e+00 4.817520000000000024e+00 4.550150000000000361e+00 5.363069999999999560e+00 3.329880000000000173e+00 7.388370000000000104e+00 1.143289999999999917e+00 3.234430000000000138e+00 7.348720000000000141e+00 5.463820000000000121e+00 3.298700000000000188e+00 1.810759999999999925e+00 1.100759999999999961e+00 3.169150000000000134e+00 1.812999999999999945e+00 5.218379999999999797e+00 1.663540000000000019e+00 4.599070000000000213e+00 1.078310000000000102e+00 1.618100000000000094e+00 4.686659999999999826e+00 5.324099999999999611e+00 6.514549999999999841e+00 7.324069999999999858e+00 9.617099999999999538e-01 6.443800000000000416e+00 7.360540000000000305e+00 5.213669999999999582e+00 1.627890000000000059e+00 8.390800000000000480e-01 1.093229999999999924e+00 1.559029999999999916e+00 8.854400000000000048e-01 5.313119999999999621e+00 6.613220000000000098e+00 3.647860000000000102e+00 9.795399999999999663e-01 6.476750000000000007e+00 3.692390000000000061e+00 5.261669999999999625e+00 4.914509999999999934e+00 6.398209999999999731e+00 9.692399999999999904e-01 4.797439999999999927e+00 6.417550000000000310e+00 5.437299999999999578e+00 4.832329999999999792e+00 8.828200000000000491e-01 1.096789999999999932e+00 4.720439999999999969e+00 8.790799999999999725e-01 5.234079999999999622e+00 3.284009999999999874e+00 3.687390000000000168e+00 1.133659999999999890e+00 3.217179999999999929e+00 3.649719999999999853e+00 5.173750000000000071e+00 1.653329999999999966e+00 6.428079999999999572e+00 1.032499999999999973e+00 1.561940000000000106e+00 6.592259999999999565e+00 5.355699999999999683e+00 6.434910000000000352e+00 1.875780000000000003e+00 3.124179999999999957e+00 6.406139999999999723e+00 1.745270000000000099e+00 7.390550000000000175e+00 4.811980000000000146e+00 4.596689999999999721e+00 3.260110000000000063e+00 4.776670000000000194e+00 4.496260000000000367e+00 7.381660000000000110e+00 3.193950000000000067e+00 7.397319999999999673e+00 3.172050000000000036e+00 3.098730000000000206e+00 7.316379999999999661e+00 7.453140000000000320e+00 3.181480000000000086e+00 1.737989999999999924e+00 3.112429999999999808e+00 3.180979999999999919e+00 1.691580000000000084e+00 7.463549999999999685e+00 1.607720000000000038e+00 4.587729999999999642e+00 3.278220000000000134e+00 1.605629999999999891e+00 4.544019999999999726e+00 7.409489999999999910e+00 6.471049999999999969e+00 7.357269999999999754e+00 3.088579999999999881e+00 6.539699999999999847e+00 7.246870000000000367e+00 7.413859999999999673e+00
1.659289999999999932e+00 8.975499999999999590e-01 3.154869999999999841e+00 1.677550000000000097e+00 9.777200000000000335e-01 7.198279999999999568e+00 6.437890000000000335e+00 3.703050000000000175e+00 2.941930000000000156e+00 6.403920000000000279e+00 3.811360000000000081e+00 7.173259999999999970e+00 4.909849999999999604e+00 6.477789999999999715e+00 2.962369999999999948e+00 4.921050000000000146e+00 6.540939999999999976e+00 7.132299999999999862e+00 4.930030000000000356e+00 8.649799999999999711e-01 2.952280000000000015e+00 4.915560000000000151e+00 9.518400000000000194e-01 7.168379999999999974e+00 3.178209999999999980e+00 3.712759999999999838e+00 3.088010000000000144e+00 3.183089999999999975e+00 3.694719999999999782e+00 7.128860000000000419e+00 1.695089999999999986e+00 6.414329999999999643e+00 3.044649999999999856e+00 6.389199999999999768e+00 1.910649999999999959e+00 1.003160000000000052e+00 6.406509999999999927e+00 1.908930000000000016e+00 5.141840000000000188e+00 4.835899999999999643e+00 4.678589999999999804e+00 9.870999999999999774e-01 4.731889999999999930e+00 4.634159999999999613e+00 5.054450000000000109e+00 3.307430000000000092e+00 7.429100000000000037e+00 9.940299999999999692e-01 3.284479999999999844e+00 7.424100000000000144e+00 5.190949999999999953e+00 3.234230000000000160e+00 1.872970000000000024e+00 1.008629999999999916e+00 3.260489999999999888e+00 1.781590000000000007e+00 5.127169999999999561e+00 1.626479999999999926e+00 4.650450000000000195e+00 9.093799999999999661e-01 1.506709999999999994e+00 4.751159999999999606e+00 5.114130000000000287e+00 6.477940000000000254e+00 7.406570000000000320e+00 9.628999999999999782e-01 6.482569999999999943e+00 7.410429999999999851e+00 5.123920000000000030e+00 1.689550000000000107e+00 9.570199999999999818e-01 1.080600000000000005e+00 1.603210000000000024e+00 9.444000000000000172e-01 5.121310000000000251e+00 6.422390000000000043e+00 3.708530000000000104e+00 1.006510000000000016e+00 6.374249999999999972e+00 3.809349999999999792e+00 5.224549999999999805e+00 4.915320000000000356e+00 6.465869999999999784e+00 9.658600000000000518e-01 4.910750000000000171e+00 6.508189999999999920e+00 5.240350000000000286e+00 4.922240000000000393e+00 9.142500000000000071e-01 1.014450000000000074e+00 4.890410000000000146e+00 9.522199999999999553e-01 5.201170000000000293e+00 3.239079999999999959e+00 3.680410000000000181e+00 1.051609999999999934e+00 3.245029999999999859e+00 3.615610000000000213e+00 5.107920000000000016e+00 1.794780000000000042e+00 6.426379999999999981e+00 1.073660000000000059e+00 1.703130000000000033e+00 6.585099999999999731e+00 5.128599999999999604e+00 6.439440000000000275e+00 1.880049999999999999e+00 3.024379999999999846e+00 6.483080000000000176e+00 1.916029999999999900e+00 7.139619999999999855e+00 4.806980000000000253e+00 4.656010000000000204e+00 3.038349999999999884e+00 4.732840000000000380e+00 4.671829999999999927e+00 7.172119999999999607e+00 3.362229999999999830e+00 7.432940000000000325e+00 3.008020000000000138e+00 3.174630000000000063e+00 7.365829999999999878e+00 7.148640000000000327e+00 3.259889999999999954e+00 1.854850000000000110e+00 3.049879999999999924e+00 3.190980000000000150e+00 1.839690000000000047e+00 7.182290000000000063e+00 1.624160000000000048e+00 4.669330000000000425e+00 3.033700000000000063e+00 1.627059999999999951e+00 4.817669999999999675e+00 7.175220000000000375e+00 6.495949999999999669e+00 7.402169999999999916e+00 2.970950000000000202e+00 6.584439999999999849e+00 7.474300000000000388e+00 7.101309999999999789e+00
1.720359999999999889e+00 8.725699999999999568e-01 3.211329999999999796e+00 1.596929999999999961e+00 9.530300000000000438e-01 7.434820000000000206e+00 6.460040000000000227e+00 3.879830000000000112e+00 3.082110000000000127e+00 6.486970000000000347e+00 3.738799999999999901e+00 7.345419999999999838e+00 4.773019999999999818e+00 6.428550000000000431e+00 3.088459999999999983e+00 4.834699999999999775e+00 6.560699999999999754e+00 7.515749999999999709e+00 5.056879999999999598e+00 9.199100000000000055e-01 3.226100000000000190e+00 4.961240000000000094e+00 9.399499999999999522e-01 7.232549999999999812e+00 3.028869999999999951e+00 3.667569999999999997e+00 3.094180000000000152e+00 3.197740000000000027e+00 3.649830000000000130e+00 7.311289999999999623e+00 1.695429999999999993e+00 6.569549999999999557e+00 3.133560000000000123e+00 6.675049999999999706e+00 1.867979999999999974e+00 1.095040000000000013e+00 6.585679999999999978e+00 1.981630000000000003e+00 5.161520000000000330e+00 4.768169999999999575e+00 4.653010000000000090e+00 1.066480000000000095e+00 4.851379999999999804e+00 4.713980000000000281e+00 5.359580000000000233e+00 3.320720000000000116e+00 7.459670000000000023e+00 1.147790000000000088e+00 3.267180000000000195e+00 7.570890000000000342e+00 5.198730000000000295e+00 3.345629999999999882e+00 1.803800000000000070e+00 9.366600000000000481e-01 3.355350000000000055e+00 1.811649999999999983e+00 5.250989999999999824e+00 1.673380000000000090e+00 4.713890000000000136e+00 9.916500000000000314e-01 1.588070000000000093e+00 4.832290000000000418e+00 5.312960000000000349e+00 6.549920000000000186e+00 7.417970000000000397e+00 1.068659999999999943e+00 6.409019999999999939e+00 7.489279999999999937e+00 5.164349999999999774e+00 1.613280000000000047e+00 8.977199999999999624e-01 1.012359999999999927e+00 1.718630000000000102e+00 9.266499999999999737e-01 5.192300000000000360e+00 6.447339999999999627e+00 3.755129999999999857e+00 1.084019999999999984e+00 6.520749999999999602e+00 3.947400000000000020e+00 5.252620000000000289e+00 4.912429999999999630e+00 6.443290000000000184e+00 1.016440000000000010e+00 4.882060000000000066e+00 6.674509999999999721e+00 5.121809999999999974e+00 5.096189999999999998e+00 8.648799999999999821e-01 1.133950000000000014e+00 4.994880000000000209e+00 9.109899999999999665e-01 5.252650000000000041e+00 3.292899999999999938e+00 3.794109999999999872e+00 1.058920000000000083e+00 3.125910000000000188e+00 3.687629999999999963e+00 5.218519999999999825e+00 1.679240000000000066e+00 6.614410000000000345e+00 1.084060000000000024e+00 1.751020000000000021e+00 6.625379999999999825e+00 5.203960000000000363e+00 6.697449999999999903e+00 1.939259999999999984e+00 3.230090000000000128e+00 6.491789999999999949e+00 1.928709999999999924e+00 7.133639999999999759e+00 4.691819999999999879e+00 4.636199999999999655e+00 3.162920000000000176e+00 4.833309999999999995e+00 4.650019999999999598e+00 7.233859999999999957e+00 3.275279999999999969e+00 7.501549999999999940e+00 3.076659999999999950e+00 3.126440000000000108e+00 7.490649999999999586e+00 7.533949999999999925e+00 3.256510000000000016e+00 1.752950000000000008e+00 3.081820000000000004e+00 3.271529999999999827e+00 1.802440000000000042e+00 7.423009999999999664e+00 1.570740000000000025e+00 4.705440000000000289e+00 3.208050000000000068e+00 1.554570000000000007e+00 4.731690000000000396e+00 7.468750000000000000e+00 6.562579999999999636e+00 7.468930000000000291e+00 3.116159999999999819e+00 6.445500000000000007e+00 7.235050000000000203e+00 7.300019999999999953e+00
1.762829999999999897e+00 9.711800000000000432e-01 3.204610000000000181e+00 1.640460000000000029e+00 1.004780000000000006e+00 7.372480000000000366e+00 6.534180000000000099e+00 3.850130000000000052e+00 3.100350000000000161e+00 6.680790000000000006e+00 3.826579999999999870e+00 7.472419999999999618e+00 4.793309999999999960e+00 6.771090000000000053e+00 3.199549999999999894e+00 5.006420000000000314e+00 6.715449999999999697e+00 7.537639999999999674e+00 5.030710000000000015e+00 9.636700000000000266e-01 3.073069999999999968e+00 5.113389999999999880e+00 9.803800000000000292e-01 7.442359999999999864e+00 3.293649999999999967e+00 3.798210000000000086e+00 3.240880000000000205e+00 3.415439999999999809e+00 3.814719999999999889e+00 7.432080000000000020e+00 1.577190000000000092e+00 6.752379999999999605e+00 3.127409999999999801e+00 6.665899999999999714e+00 1.925040000000000084e+00 9.916800000000000059e-01 6.517739999999999867e+00 1.922279999999999989e+00 5.291739999999999888e+00 4.874209999999999710e+00 4.762609999999999566e+00 1.185769999999999991e+00 4.996540000000000425e+00 4.825490000000000279e+00 5.362739999999999618e+00 3.200530000000000097e+00 7.676120000000000054e+00 1.043959999999999999e+00 3.415179999999999882e+00 7.668449999999999989e+00 5.433139999999999858e+00 3.409149999999999903e+00 1.983219999999999983e+00 9.787900000000000489e-01 3.308059999999999778e+00 1.896200000000000108e+00 5.450639999999999930e+00 1.631199999999999983e+00 4.850640000000000285e+00 1.128409999999999913e+00 1.592079999999999940e+00 4.771080000000000432e+00 5.255469999999999864e+00 6.552430000000000199e+00 7.666059999999999874e+00 1.084079999999999933e+00 6.619810000000000194e+00 7.624609999999999665e+00 5.217489999999999739e+00 1.777160000000000073e+00 9.685799999999999965e-01 9.684199999999999475e-01 1.678830000000000044e+00 9.244599999999999485e-01 5.498300000000000409e+00 6.490789999999999615e+00 3.826670000000000016e+00 9.596500000000000030e-01 6.677859999999999907e+00 3.752310000000000034e+00 5.130550000000000388e+00 4.903690000000000104e+00 6.679359999999999964e+00 9.912900000000000045e-01 5.040040000000000298e+00 6.746509999999999785e+00 5.356349999999999945e+00 4.917049999999999699e+00 9.267800000000000482e-01 1.033130000000000104e+00 4.947499999999999787e+00 9.339300000000000379e-01 5.236959999999999837e+00 3.296419999999999906e+00 3.858820000000000139e+00 9.966399999999999704e-01 3.288650000000000073e+00 3.813719999999999999e+00 5.320969999999999978e+00 1.642130000000000090e+00 6.665919999999999845e+00 1.105650000000000022e+00 1.691670000000000007e+00 6.643309999999999604e+00 5.375589999999999868e+00 6.590900000000000425e+00 1.843579999999999997e+00 3.043800000000000061e+00 6.561829999999999607e+00 1.918490000000000029e+00 7.449360000000000426e+00 4.962390000000000079e+00 4.830890000000000128e+00 3.139609999999999790e+00 5.058939999999999770e+00 4.763860000000000205e+00 7.454950000000000188e+00 3.200559999999999850e+00 7.730179999999999829e+00 3.298760000000000137e+00 3.253439999999999888e+00 7.703450000000000131e+00 7.393209999999999837e+00 3.378690000000000193e+00 2.002110000000000056e+00 3.222919999999999785e+00 3.430439999999999934e+00 1.884220000000000006e+00 7.439689999999999692e+00 1.638200000000000101e+00 4.754380000000000273e+00 3.098310000000000120e+00 1.782650000000000068e+00 4.864259999999999806e+00 7.533730000000000260e+00 6.429269999999999818e+00 7.773030000000000328e+00 3.128849999999999909e+00 6.746400000000000396e+00 7.590410000000000323e+00 7.402770000000000294e+00
1.679799999999999960e+00 9.028800000000000159e-01 3.032910000000000217e+00 1.706990000000000007e+00 1.011959999999999971e+00 7.170079999999999565e+00 6.407750000000000057e+00 3.687250000000000139e+00 3.006850000000000023e+00 6.560509999999999842e+00 3.775119999999999809e+00 7.102719999999999700e+00 4.782350000000000101e+00 6.496209999999999596e+00 3.102120000000000211e+00 4.750079999999999636e+00 6.529729999999999812e+00 7.087229999999999919e+00 4.828820000000000334e+00 9.100500000000000256e-01 3.156919999999999948e+00 4.788630000000000386e+00 9.000599999999999712e-01 7.116729999999999556e+00 3.115270000000000206e+00 3.822509999999999852e+00 3.009119999999999795e+00 3.318719999999999892e+00 3.730170000000000208e+00 7.099709999999999965e+00 1.512340000000000018e+00 6.617210000000000036e+00 3.127339999999999787e+00 6.395069999999999588e+00 1.947759999999999936e+00 1.151880000000000015e+00 6.426300000000000345e+00 2.018810000000000215e+00 5.074530000000000207e+00 4.843619999999999592e+00 4.637699999999999712e+00 9.423899999999999499e-01 4.860579999999999679e+00 4.679269999999999818e+00 5.156209999999999738e+00 3.125239999999999796e+00 7.468919999999999781e+00 1.103730000000000100e+00 3.114290000000000003e+00 7.484890000000000043e+00 5.224140000000000228e+00 3.233989999999999920e+00 1.856440000000000090e+00 1.096039999999999903e+00 3.220310000000000006e+00 1.922919999999999963e+00 5.095609999999999751e+00 1.652859999999999996e+00 4.743710000000000093e+00 9.997300000000000075e-01 1.753249999999999975e+00 4.780409999999999826e+00 5.118430000000000035e+00 6.287950000000000372e+00 7.449029999999999596e+00 9.839700000000000113e-01 6.355719999999999814e+00 7.445269999999999833e+00 5.203809999999999825e+00 1.606989999999999919e+00 8.762499999999999734e-01 1.007949999999999902e+00 1.622379999999999933e+00 9.389399999999999968e-01 5.011860000000000426e+00 6.457489999999999952e+00 3.765320000000000000e+00 9.774699999999999500e-01 6.462889999999999802e+00 3.825369999999999937e+00 5.037989999999999746e+00 4.690279999999999561e+00 6.470839999999999925e+00 1.048680000000000057e+00 4.744209999999999816e+00 6.516770000000000174e+00 5.075840000000000352e+00 4.793009999999999771e+00 9.503399999999999626e-01 9.830699999999999994e-01 4.763869999999999827e+00 9.407400000000000206e-01 5.043339999999999712e+00 3.152130000000000098e+00 3.699860000000000149e+00 1.094330000000000025e+00 3.336009999999999920e+00 3.749200000000000088e+00 5.183779999999999610e+00 1.462269999999999959e+00 6.561230000000000118e+00 1.048959999999999892e+00 1.514550000000000063e+00 6.555259999999999643e+00 5.087579999999999991e+00 6.452139999999999986e+00 1.822840000000000016e+00 3.089129999999999932e+00 6.387719999999999843e+00 1.930520000000000014e+00 7.157420000000000115e+00 4.804310000000000080e+00 4.727330000000000254e+00 2.987449999999999939e+00 4.960749999999999993e+00 4.740160000000000373e+00 7.200319999999999609e+00 3.180680000000000174e+00 7.467010000000000147e+00 3.066809999999999814e+00 3.079460000000000086e+00 7.541680000000000383e+00 7.159749999999999837e+00 3.213499999999999801e+00 1.840680000000000094e+00 3.040319999999999911e+00 3.282779999999999809e+00 1.852689999999999948e+00 7.138499999999999623e+00 1.519060000000000077e+00 4.765170000000000350e+00 3.185869999999999980e+00 1.780799999999999939e+00 4.776790000000000092e+00 7.141440000000000232e+00 6.322910000000000252e+00 7.458009999999999806e+00 2.941790000000000127e+00 6.468300000000000161e+00 7.502519999999999634e+00 7.201970000000000205e+00
1.604160000000000030e+00 1.016019999999999923e+00 3.136390000000000011e+00 1.602489999999999970e+00 9.282799999999999940e-01 7.179920000000000080e+00 6.489180000000000170e+00 3.829839999999999911e+00 3.084670000000000023e+00 6.452539999999999942e+00 3.902789999999999981e+00 7.224800000000000111e+00 4.955899999999999750e+00 6.581220000000000070e+00 3.112260000000000026e+00 5.000409999999999577e+00 6.667480000000000295e+00 7.245499999999999829e+00 4.845430000000000348e+00 1.055479999999999974e+00 3.052099999999999813e+00 4.872340000000000337e+00 9.682699999999999640e-01 7.228690000000000282e+00 3.200860000000000039e+00 3.814820000000000100e+00 3.076159999999999783e+00 3.184839999999999893e+00 4.007209999999999717e+00 7.216450000000000031e+00 1.640120000000000022e+00 6.549430000000000085e+00 3.148789999999999978e+00 6.547990000000000421e+00 1.947759999999999936e+00 1.105779999999999985e+00 6.482520000000000060e+00 1.888209999999999944e+00 5.249480000000000146e+00 4.928350000000000009e+00 4.678960000000000008e+00 9.497700000000000031e-01 4.886320000000000441e+00 4.812870000000000203e+00 5.227079999999999949e+00 3.247409999999999908e+00 7.485229999999999606e+00 9.679600000000000426e-01 3.261859999999999982e+00 7.595810000000000173e+00 5.034410000000000274e+00 3.284320000000000128e+00 1.986159999999999926e+00 1.029109999999999969e+00 3.255230000000000068e+00 1.929009999999999891e+00 5.170189999999999841e+00 1.635539999999999994e+00 4.728430000000000355e+00 9.765700000000000491e-01 1.564559999999999951e+00 4.746620000000000061e+00 5.205359999999999765e+00 6.595650000000000013e+00 7.544900000000000162e+00 9.540800000000000392e-01 6.561309999999999754e+00 7.635670000000000179e+00 5.188889999999999780e+00 1.733100000000000085e+00 9.024699999999999944e-01 1.008440000000000003e+00 1.605380000000000029e+00 9.796000000000000263e-01 5.185450000000000337e+00 6.607479999999999798e+00 3.784199999999999786e+00 9.261000000000000343e-01 6.522090000000000387e+00 3.834719999999999906e+00 5.238710000000000200e+00 4.927950000000000053e+00 6.472369999999999735e+00 1.080619999999999914e+00 4.963460000000000427e+00 6.599630000000000329e+00 5.263320000000000221e+00 4.913599999999999746e+00 9.575000000000000178e-01 9.736599999999999699e-01 4.834559999999999746e+00 9.499900000000000011e-01 5.143480000000000274e+00 3.271729999999999805e+00 3.803729999999999833e+00 9.281599999999999850e-01 3.296650000000000080e+00 3.925710000000000033e+00 5.185240000000000293e+00 1.588100000000000067e+00 6.485360000000000014e+00 1.183939999999999992e+00 1.639699999999999935e+00 6.495569999999999844e+00 5.016119999999999912e+00 6.534270000000000245e+00 2.027509999999999923e+00 3.162560000000000038e+00 6.502670000000000172e+00 1.944539999999999935e+00 7.234399999999999942e+00 4.817309999999999981e+00 4.709690000000000154e+00 3.082759999999999945e+00 4.928040000000000198e+00 4.826889999999999681e+00 7.180139999999999745e+00 3.353409999999999780e+00 7.594030000000000058e+00 3.117609999999999992e+00 3.208680000000000199e+00 7.431630000000000180e+00 7.140069999999999695e+00 3.191469999999999807e+00 1.926639999999999908e+00 3.132629999999999804e+00 3.249420000000000197e+00 2.005729999999999791e+00 7.230150000000000077e+00 1.524289999999999923e+00 4.662390000000000256e+00 3.193290000000000184e+00 1.751069999999999904e+00 4.960280000000000022e+00 7.173569999999999780e+00 6.529849999999999710e+00 7.633680000000000021e+00 3.097869999999999902e+00 6.702510000000000190e+00 7.516510000000000247e+00 7.225489999999999746e+00