-3.678579124600000227e+02
-3.664070172300000081e+02
-3.720093989999999735e+02
-3.715110389700000155e+02
-3.700980842100000245e+02
-3.706699251800000070e+02
-3.710732745199999840e+02
-3.715133340699999849e+02
-3.654395865999999842e+02
-3.664868909200000076e+02
-3.693179739000000268e+02
-3.703303199200000222e+02
-3.719399335699999938e+02
-3.696265567199999964e+02
-3.676725217700000030e+02
-3.675877722800000242e+02
-3.709977443899999798e+02
-3.706833586100000275e+02
-3.674525793999999905e+02
-3.702548787999999718e+02
-3.686924328000000060e+02
-3.699006246499999975e+02
-3.720675223599999981e+02
-3.684904218400000104e+02
-3.712846174499999847e+02
-3.698912196699999981e+02
-3.705389703199999758e+02
-3.745032481999999732e+02
-3.708004464300000222e+02
-3.702386814100000265e+02
-3.699290536899999893e+02
-3.723700158899999906e+02
-3.700739876900000240e+02
-3.713619324100000085e+02
-3.695953307799999834e+02
-3.702026343499999825e+02
-3.721271901999999727e+02
-3.708412050000000022e+02
-3.668645130400000198e+02
-3.682762526099999718e+02
-3.706782558099999960e+02
-3.707411578699999950e+02
-3.720981791699999803e+02
-3.709967364299999986e+02
-3.675343651800000089e+02
-3.717335149500000284e+02
-3.710078506599999741e+02
-3.707017411599999832e+02
-3.636177989899999830e+02
-3.718536735100000215e+02
