6.326519642000000054e+00 0.000000000000000000e+00 0.000000000000000000e+00 -3.072078632999999837e+00 5.401267714000000275e+00 0.000000000000000000e+00 -2.913901500000000075e-02 1.652629939999999964e-01 9.788437725999999728e+00
6.179794306999999876e+00 0.000000000000000000e+00 0.000000000000000000e+00 -3.084332606999999893e+00 5.358876471000000308e+00 0.000000000000000000e+00 -5.592258499999999688e-02 -2.795623599999999889e-02 1.001252292999999938e+01
6.034779439000000245e+00 0.000000000000000000e+00 0.000000000000000000e+00 -2.963106543999999953e+00 5.289589176999999864e+00 0.000000000000000000e+00 -1.586146410000000007e-01 3.866258999999999668e-02 1.031354366799999944e+01
6.190407066999999763e+00 0.000000000000000000e+00 0.000000000000000000e+00 -3.104894895000000155e+00 5.352068838000000106e+00 0.000000000000000000e+00 -2.927061099999999846e-02 -9.549836000000000782e-03 9.953159558999999490e+00
6.206504205999999968e+00 0.000000000000000000e+00 0.000000000000000000e+00 -3.118250392999999843e+00 5.345774691999999995e+00 0.000000000000000000e+00 -1.114417300000000027e-02 2.829663600000000001e-02 9.905461881000000801e+00
6.030715186000000116e+00 0.000000000000000000e+00 0.000000000000000000e+00 -3.005460919999999980e+00 5.274428594999999831e+00 0.000000000000000000e+00 7.089014000000000253e-03 4.823486300000000282e-02 9.825501725000000519e+00
6.297845051000000360e+00 0.000000000000000000e+00 0.000000000000000000e+00 -3.108295850999999832e+00 5.498419624000000283e+00 0.000000000000000000e+00 -2.093987629999999878e-01 -2.194448750000000115e-01 1.010688336800000009e+01
6.174348552999999740e+00 0.000000000000000000e+00 0.000000000000000000e+00 -3.107151170999999934e+00 5.334411399000000387e+00 0.000000000000000000e+00 5.228736000000000321e-03 1.136847799999999957e-02 9.801654811000000578e+00
6.307460646000000004e+00 0.000000000000000000e+00 0.000000000000000000e+00 -3.192092209000000125e+00 5.521441399999999611e+00 0.000000000000000000e+00 -5.775575799999999732e-02 -4.633737310000000109e-01 9.999169334999999492e+00
6.397543486000000001e+00 0.000000000000000000e+00 0.000000000000000000e+00 -3.169627590000000161e+00 5.630552886000000257e+00 0.000000000000000000e+00 1.344425539999999919e-01 -4.178039000000000058e-02 9.831260243999999204e+00
6.179796178000000140e+00 0.000000000000000000e+00 0.000000000000000000e+00 -3.070237338000000094e+00 5.348398483000000425e+00 0.000000000000000000e+00 -3.136920999999999980e-03 -1.967968000000000148e-02 9.972101373999999296e+00
6.208004314000000079e+00 0.000000000000000000e+00 0.000000000000000000e+00 -3.063228555999999880e+00 5.504598588000000348e+00 0.000000000000000000e+00 -1.208636030000000000e-01 -2.972830999999999998e-03 1.007823088399999989e+01
6.331990948999999702e+00 0.000000000000000000e+00 0.000000000000000000e+00 -3.133084136999999991e+00 5.384295880999999895e+00 0.000000000000000000e+00 -1.362327110000000063e-01 1.966663270000000019e-01 9.922240434000000775e+00
6.264483126000000013e+00 0.000000000000000000e+00 0.000000000000000000e+00 -2.972065938000000074e+00 5.608435869000000018e+00 0.000000000000000000e+00 -1.707394780000000001e-01 -1.759296660000000123e-01 1.002335973599999974e+01
6.262013599000000319e+00 0.000000000000000000e+00 0.000000000000000000e+00 -3.138320988999999894e+00 5.486431387999999743e+00 0.000000000000000000e+00 2.149842999999999893e-02 7.650683799999999368e-02 1.017715101799999999e+01
6.193371232999999698e+00 0.000000000000000000e+00 0.000000000000000000e+00 -3.172038725000000170e+00 5.424515538999999720e+00 0.000000000000000000e+00 -1.777078300000000111e-01 -8.919457299999999922e-02 1.009915553899999985e+01
6.188176627999999901e+00 0.000000000000000000e+00 0.000000000000000000e+00 -3.142174408999999891e+00 5.533261312999999681e+00 0.000000000000000000e+00 -9.681011400000000267e-02 -1.850201400000000065e-02 9.866398235000000128e+00
6.182301818000000004e+00 0.000000000000000000e+00 0.000000000000000000e+00 -3.072586708000000222e+00 5.377932921000000199e+00 0.000000000000000000e+00 3.395976400000000339e-02 -4.000276199999999727e-02 9.954513044000000477e+00
6.159559908000000306e+00 0.000000000000000000e+00 0.000000000000000000e+00 -2.817624256000000216e+00 5.428168553999999979e+00 0.000000000000000000e+00 -3.678623979999999793e-01 -2.646977090000000032e-01 1.014627833499999987e+01
6.121457514000000266e+00 0.000000000000000000e+00 0.000000000000000000e+00 -3.040415893000000036e+00 5.243869139000000068e+00 0.000000000000000000e+00 -1.504737559999999863e-01 3.390727799999999903e-02 9.874621632000000204e+00
6.235268902999999696e+00 0.000000000000000000e+00 0.000000000000000000e+00 -3.145959686999999949e+00 5.374016689000000291e+00 0.000000000000000000e+00 -7.503682000000000234e-03 -5.631921399999999939e-02 9.953088012000000262e+00
6.265798154999999703e+00 0.000000000000000000e+00 0.000000000000000000e+00 -3.279410645000000013e+00 5.335509061999999858e+00 0.000000000000000000e+00 6.062290599999999724e-02 3.697080300000000347e-02 9.931831087000000835e+00
6.249780774000000427e+00 0.000000000000000000e+00 0.000000000000000000e+00 -3.150534151000000005e+00 5.418441984000000211e+00 0.000000000000000000e+00 8.711887999999999577e-02 -5.462388000000000313e-03 1.008228464699999982e+01
6.239921844000000384e+00 0.000000000000000000e+00 0.000000000000000000e+00 -3.075872797000000158e+00 5.296079399999999993e+00 0.000000000000000000e+00 -2.520728260000000276e-01 -1.323153350000000061e-01 9.868345040999999540e+00
6.174679626999999726e+00 0.000000000000000000e+00 0.000000000000000000e+00 -3.134743035000000067e+00 5.304502239999999702e+00 0.000000000000000000e+00 1.960254429999999937e-01 -6.714094199999999513e-02 1.020786835200000020e+01
6.224040406000000303e+00 0.000000000000000000e+00 0.000000000000000000e+00 -3.024031782999999862e+00 5.447207964000000402e+00 0.000000000000000000e+00 1.486211169999999970e-01 8.001769000000000243e-02 9.894094545999999823e+00
6.239361703000000148e+00 0.000000000000000000e+00 0.000000000000000000e+00 -3.094941414000000002e+00 5.200777854000000033e+00 0.000000000000000000e+00 7.954056199999999521e-02 1.819178250000000052e-01 9.991244634999999263e+00
6.220272105000000273e+00 0.000000000000000000e+00 0.000000000000000000e+00 -3.068113471000000203e+00 5.371122972000000217e+00 0.000000000000000000e+00 -6.056824599999999920e-02 7.110680000000000299e-04 9.971637391999999878e+00
6.191458936000000080e+00 0.000000000000000000e+00 0.000000000000000000e+00 -3.099611791000000061e+00 5.372352550999999643e+00 0.000000000000000000e+00 -9.784500000000000662e-04 1.154320500000000083e-02 9.993923461999999702e+00
6.200930973000000179e+00 0.000000000000000000e+00 0.000000000000000000e+00 -3.066688773000000090e+00 5.583207726000000370e+00 0.000000000000000000e+00 1.209500839999999994e-01 1.563361099999999865e-02 9.983292042000000421e+00
6.161290841999999657e+00 0.000000000000000000e+00 0.000000000000000000e+00 -3.072650498999999868e+00 5.346679056000000152e+00 0.000000000000000000e+00 6.529298999999999693e-03 -1.176270500000000004e-02 9.961156124000000389e+00
6.199209327000000158e+00 0.000000000000000000e+00 0.000000000000000000e+00 -3.057142183999999929e+00 5.359313217000000407e+00 0.000000000000000000e+00 -4.080308810000000119e-01 -3.593232860000000195e-01 1.008657304499999974e+01
6.245060964000000325e+00 0.000000000000000000e+00 0.000000000000000000e+00 -3.205223687000000155e+00 5.425690258999999571e+00 0.000000000000000000e+00 -3.618608499999999978e-02 -1.954538969999999876e-01 9.906194014000000436e+00
6.249701812999999717e+00 0.000000000000000000e+00 0.000000000000000000e+00 -3.230349791000000081e+00 5.358628475999999807e+00 0.000000000000000000e+00 5.489757299999999812e-02 7.647560300000000311e-02 9.915028424000000840e+00
6.201783126999999674e+00 0.000000000000000000e+00 0.000000000000000000e+00 -3.034338282999999858e+00 5.474548172999999629e+00 0.000000000000000000e+00 -2.452284000000000061e-02 -1.114312930000000007e-01 1.001663231899999928e+01
6.270407178000000137e+00 0.000000000000000000e+00 0.000000000000000000e+00 -3.208194401000000084e+00 5.357182213999999831e+00 0.000000000000000000e+00 1.683008619999999955e-01 -6.454305999999999932e-03 1.015640609399999938e+01
6.154540085999999910e+00 0.000000000000000000e+00 0.000000000000000000e+00 -3.079722367000000016e+00 5.353745610999999904e+00 0.000000000000000000e+00 -2.162234560000000083e-01 1.419829720000000128e-01 1.002518388400000049e+01
6.063369950000000230e+00 0.000000000000000000e+00 0.000000000000000000e+00 -2.894764142000000096e+00 5.387875382999999907e+00 0.000000000000000000e+00 -7.135810300000000606e-02 -9.494365300000000285e-02 1.006236601600000036e+01
6.246923681000000173e+00 0.000000000000000000e+00 0.000000000000000000e+00 -3.110938468000000068e+00 5.479990349999999566e+00 0.000000000000000000e+00 3.639377199999999785e-02 6.131031599999999665e-02 1.035384779600000016e+01
6.218411982000000116e+00 0.000000000000000000e+00 0.000000000000000000e+00 -3.097006329000000058e+00 5.359782992999999607e+00 0.000000000000000000e+00 -7.247712300000000440e-02 -5.695921999999999964e-03 9.861871860999999129e+00
6.218825621999999775e+00 0.000000000000000000e+00 0.000000000000000000e+00 -3.128181005000000070e+00 5.363675863000000099e+00 0.000000000000000000e+00 5.935477399999999903e-02 -2.307630499999999835e-02 9.931076013000000202e+00
6.226289704000000036e+00 0.000000000000000000e+00 0.000000000000000000e+00 -3.195163514999999954e+00 5.405022360000000248e+00 0.000000000000000000e+00 -1.738990019999999970e-01 -1.780970610000000010e-01 1.001074864799999986e+01
6.192286353000000076e+00 0.000000000000000000e+00 0.000000000000000000e+00 -3.020418500999999978e+00 5.287414627000000422e+00 0.000000000000000000e+00 -2.461665949999999881e-01 -2.499830500000000122e-01 1.010991464700000009e+01
6.280716995999999774e+00 0.000000000000000000e+00 0.000000000000000000e+00 -3.248451386000000163e+00 5.265959830999999980e+00 0.000000000000000000e+00 -2.466106469999999884e-01 -1.417430550000000067e-01 1.007615299999999969e+01
6.284227990999999847e+00 0.000000000000000000e+00 0.000000000000000000e+00 -3.078902836999999781e+00 5.399572645000000115e+00 0.000000000000000000e+00 -1.256970689999999946e-01 -5.592523700000000264e-02 1.033211727599999996e+01
6.287632250999999783e+00 0.000000000000000000e+00 0.000000000000000000e+00 -3.231156330000000132e+00 5.333271737999999651e+00 0.000000000000000000e+00 -2.734657970000000105e-01 -1.935986439999999864e-01 1.005964667499999976e+01
6.143203655999999846e+00 0.000000000000000000e+00 0.000000000000000000e+00 -3.071488040000000197e+00 5.321639046999999678e+00 0.000000000000000000e+00 4.632637700000000192e-02 2.958440299999999870e-02 9.915953532999999709e+00
6.144601784999999872e+00 0.000000000000000000e+00 0.000000000000000000e+00 -3.116867619999999839e+00 5.346104082000000091e+00 0.000000000000000000e+00 7.316797999999999358e-02 -8.906169999999999712e-03 9.933659106000000349e+00
6.128065400999999746e+00 0.000000000000000000e+00 0.000000000000000000e+00 -2.988366953999999964e+00 5.396991212999999732e+00 0.000000000000000000e+00 -8.222487000000000545e-03 7.741717300000000579e-02 1.011791944299999990e+01
6.165396199999999993e+00 0.000000000000000000e+00 0.000000000000000000e+00 -3.068933465999999832e+00 5.295724799000000260e+00 0.000000000000000000e+00 3.564171700000000331e-02 -2.938151099999999905e-02 9.842871957999999921e+00
