1.842300000000000049e+00 9.231700000000000461e-01 4.362940000000000040e+00 1.645080000000000098e+00 1.032000000000000028e+00 9.242340000000000444e+00 7.445000000000000229e-02 3.982120000000000104e+00 4.303090000000000082e+00 7.609000000000000485e-02 3.792370000000000019e+00 9.308579999999999188e+00 4.547109999999999985e+00 8.736099999999999977e-01 4.280509999999999593e+00 4.743100000000000094e+00 1.101890000000000036e+00 9.197969999999999757e+00 3.217729999999999979e+00 3.750859999999999861e+00 4.341210000000000235e+00 3.250239999999999796e+00 3.817159999999999886e+00 9.303079999999999572e+00 -1.644999999999999934e-02 1.913710000000000022e+00 1.953400000000000025e+00 4.046000000000000291e-02 1.808840000000000003e+00 7.060880000000000045e+00 -1.606209999999999916e+00 4.543700000000000294e+00 1.935810000000000031e+00 -1.597429999999999906e+00 4.618420000000000414e+00 6.807100000000000151e+00 3.110930000000000195e+00 1.753600000000000048e+00 1.832200000000000051e+00 3.206679999999999975e+00 1.930309999999999970e+00 6.743640000000000079e+00 1.643480000000000052e+00 4.559949999999999726e+00 1.887270000000000003e+00 1.618789999999999951e+00 4.505980000000000096e+00 6.846560000000000201e+00 1.502070000000000016e+00 9.972199999999999953e-01 2.491870000000000029e+00 1.641000000000000014e+00 9.861100000000000421e-01 7.345309999999999562e+00 6.392000000000000459e-02 3.704000000000000181e+00 2.460310000000000219e+00 -4.884999999999999759e-02 3.605669999999999931e+00 7.232770000000000366e+00 4.753720000000000390e+00 9.553500000000000325e-01 2.402930000000000010e+00 4.773520000000000429e+00 9.641800000000000370e-01 7.184879999999999711e+00 3.204029999999999934e+00 3.579559999999999853e+00 2.418289999999999829e+00 3.222269999999999968e+00 3.685420000000000140e+00 7.316419999999999924e+00 -3.848000000000000032e-02 1.993819999999999926e+00 9.671789999999999665e+00 -1.494669999999999943e+00 4.566639999999999588e+00 4.931189999999999962e+00 -1.505430000000000046e+00 4.542519999999999669e+00 6.482999999999999874e-02 3.251450000000000173e+00 1.978509999999999991e+00 4.830899999999999750e+00 3.131099999999999994e+00 1.939300000000000024e+00 9.666800000000000281e+00 1.662400000000000100e+00 4.585740000000000371e+00 4.884999999999999787e+00 1.647019999999999929e+00 4.620560000000000223e+00 9.788280000000000314e+00
1.732189999999999896e+00 7.854400000000000270e-01 4.317859999999999587e+00 1.514080000000000092e+00 8.288299999999999557e-01 9.440979999999999706e+00 -3.350000000000000113e-03 3.785979999999999901e+00 4.317079999999999806e+00 -6.131000000000000338e-02 3.553500000000000103e+00 9.459809999999999164e+00 4.436499999999999666e+00 7.824400000000000244e-01 4.357490000000000308e+00 4.538129999999999775e+00 8.329499999999999682e-01 9.473000000000000753e+00 3.071470000000000145e+00 3.537009999999999987e+00 4.406950000000000145e+00 3.048010000000000108e+00 3.552000000000000046e+00 9.388889999999999958e+00 -1.324999999999999963e-02 1.779879999999999907e+00 1.874270000000000103e+00 -6.476999999999999424e-02 1.782669999999999977e+00 7.192969999999999864e+00 -1.564179999999999904e+00 4.440599999999999881e+00 1.883669999999999956e+00 -1.616219999999999990e+00 4.483889999999999709e+00 6.894879999999999676e+00 3.069970000000000088e+00 1.785549999999999971e+00 1.845909999999999940e+00 3.083930000000000060e+00 1.787639999999999896e+00 6.916419999999999568e+00 1.551900000000000057e+00 4.454460000000000086e+00 1.879259999999999931e+00 1.495339999999999892e+00 4.429649999999999643e+00 6.936149999999999594e+00 1.513619999999999965e+00 8.908800000000000052e-01 2.463919999999999888e+00 1.542780000000000040e+00 8.922799999999999621e-01 7.509030000000000094e+00 1.100000000000000066e-03 3.533259999999999845e+00 2.462509999999999977e+00 -5.532999999999999724e-02 3.588540000000000063e+00 7.500820000000000043e+00 4.638060000000000294e+00 9.037800000000000278e-01 2.465199999999999836e+00 4.583479999999999777e+00 8.518000000000000016e-01 7.522230000000000416e+00 3.077210000000000001e+00 3.566250000000000142e+00 2.498549999999999827e+00 3.069469999999999921e+00 3.563009999999999788e+00 7.505899999999999572e+00 -4.642000000000000293e-02 1.731530000000000014e+00 9.955140000000000100e+00 -1.615420000000000078e+00 4.448450000000000237e+00 5.048329999999999984e+00 -1.554980000000000029e+00 4.459389999999999965e+00 5.900000000000000296e-04 3.084010000000000140e+00 1.820119999999999960e+00 5.043300000000000338e+00 3.080649999999999888e+00 1.801320000000000032e+00 8.109999999999999154e-03 1.563269999999999937e+00 4.417930000000000135e+00 5.059859999999999580e+00 1.499270000000000103e+00 4.419179999999999886e+00 1.000389000000000017e+01
2.299319999999999808e+00 7.921700000000000408e-01 4.388279999999999959e+00 1.186940000000000106e+00 9.500600000000000156e-01 9.722009999999999152e+00 2.778999999999999873e-02 3.549110000000000209e+00 4.330849999999999866e+00 -4.748000000000000137e-02 3.555590000000000028e+00 9.752470000000000638e+00 3.841969999999999885e+00 6.922399999999999665e-01 4.424070000000000391e+00 4.247189999999999799e+00 8.030800000000000161e-01 9.575200000000000600e+00 3.187829999999999941e+00 3.560140000000000082e+00 4.507100000000000328e+00 2.875919999999999810e+00 3.710290000000000088e+00 9.784969999999999501e+00 -5.738000000000000045e-02 1.645319999999999894e+00 2.176670000000000105e+00 -1.195800000000000057e-01 1.702520000000000033e+00 7.218180000000000263e+00 -1.371909999999999963e+00 4.373000000000000220e+00 1.681880000000000042e+00 -1.518590000000000106e+00 4.498879999999999768e+00 7.144680000000000142e+00 3.016179999999999861e+00 1.595800000000000107e+00 1.761789999999999967e+00 2.918250000000000011e+00 1.930080000000000018e+00 7.239659999999999762e+00 1.608409999999999895e+00 4.443360000000000198e+00 1.853199999999999958e+00 1.406830000000000025e+00 4.526600000000000179e+00 7.297109999999999985e+00 1.575050000000000061e+00 6.962500000000000355e-01 2.383929999999999882e+00 1.423629999999999951e+00 8.974400000000000155e-01 7.793829999999999814e+00 9.579999999999999974e-03 3.426820000000000199e+00 2.513609999999999900e+00 7.317999999999999505e-02 3.359849999999999781e+00 7.571570000000000356e+00 4.386870000000000047e+00 8.521199999999999886e-01 2.487449999999999939e+00 4.487040000000000362e+00 1.045029999999999903e+00 7.794749999999999623e+00 2.937089999999999979e+00 3.364869999999999806e+00 2.628559999999999786e+00 2.922410000000000174e+00 3.683549999999999880e+00 7.816849999999999632e+00 -9.557999999999999829e-02 1.747859999999999969e+00 3.558000000000000052e-02 -1.432639999999999914e+00 4.600769999999999804e+00 5.283450000000000202e+00 -1.747509999999999897e+00 4.520260000000000389e+00 1.020547999999999966e+01 3.036039999999999850e+00 1.995260000000000034e+00 5.378879999999999661e+00 2.892659999999999787e+00 1.907699999999999951e+00 4.929000000000000048e-02 1.466169999999999973e+00 4.393839999999999968e+00 5.166479999999999961e+00 1.414099999999999913e+00 4.473049999999999748e+00 8.848999999999999921e-02
1.698779999999999957e+00 8.103399999999999492e-01 4.342649999999999899e+00 1.524520000000000097e+00 8.855300000000000393e-01 9.367820000000000036e+00 -2.029999999999999860e-02 3.718999999999999861e+00 4.355260000000000353e+00 -3.422999999999999654e-02 3.565389999999999837e+00 9.362560000000000215e+00 4.445470000000000255e+00 7.923599999999999532e-01 4.358030000000000292e+00 4.591370000000000395e+00 8.997000000000000552e-01 9.364349999999999952e+00 3.063279999999999781e+00 3.544560000000000155e+00 4.352020000000000444e+00 3.063229999999999897e+00 3.589949999999999974e+00 9.341659999999999187e+00 7.499999999999999722e-03 1.792249999999999899e+00 1.916299999999999892e+00 -3.917999999999999955e-02 1.776480000000000059e+00 7.058889999999999887e+00 -1.543439999999999923e+00 4.459570000000000256e+00 1.848039999999999905e+00 -1.608340000000000103e+00 4.435489999999999711e+00 6.882889999999999731e+00 3.111390000000000100e+00 1.776129999999999987e+00 1.886260000000000048e+00 3.056799999999999962e+00 1.775479999999999947e+00 6.898130000000000095e+00 1.542689999999999895e+00 4.465390000000000192e+00 1.857290000000000108e+00 1.519609999999999905e+00 4.465270000000000294e+00 6.870210000000000150e+00 1.559160000000000101e+00 8.927899999999999725e-01 2.480280000000000040e+00 1.514950000000000019e+00 8.943799999999999528e-01 7.437330000000000219e+00 1.660000000000000017e-02 3.573090000000000099e+00 2.481970000000000010e+00 -5.700999999999999818e-02 3.567140000000000200e+00 7.407939999999999969e+00 4.672609999999999708e+00 8.951900000000000412e-01 2.493240000000000123e+00 4.603880000000000194e+00 8.963499999999999801e-01 7.427789999999999893e+00 3.119299999999999962e+00 3.576249999999999929e+00 2.455649999999999888e+00 3.062450000000000117e+00 3.544369999999999798e+00 7.486640000000000406e+00 -3.352999999999999731e-02 1.784750000000000059e+00 9.909369999999999123e+00 -1.609439999999999982e+00 4.417430000000000412e+00 5.019560000000000244e+00 -1.579369999999999941e+00 4.436969999999999636e+00 9.943580000000000751e+00 3.079489999999999839e+00 1.808599999999999985e+00 5.028299999999999770e+00 3.044059999999999988e+00 1.779579999999999940e+00 9.929249999999999687e+00 1.541719999999999979e+00 4.410610000000000142e+00 5.024189999999999934e+00 1.507169999999999899e+00 4.436849999999999739e+00 9.951399999999999579e+00
1.710979999999999945e+00 7.980800000000000116e-01 4.281500000000000306e+00 1.560740000000000016e+00 9.320800000000000196e-01 9.345370000000000843e+00 1.600000000000000131e-04 3.805089999999999861e+00 4.315120000000000289e+00 -3.380999999999999978e-02 3.603950000000000209e+00 9.347170000000000201e+00 4.470930000000000071e+00 7.835900000000000087e-01 4.274869999999999948e+00 4.620529999999999582e+00 8.855499999999999483e-01 9.346529999999999561e+00 3.058279999999999887e+00 3.572459999999999969e+00 4.345030000000000392e+00 3.067619999999999791e+00 3.588729999999999976e+00 9.307019999999999627e+00 2.026999999999999982e-02 1.787989999999999968e+00 1.866500000000000048e+00 -4.709999999999999777e-03 1.830689999999999928e+00 7.108310000000000350e+00 -1.556769999999999987e+00 4.474990000000000023e+00 1.840619999999999923e+00 -1.579560000000000075e+00 4.477050000000000196e+00 6.850869999999999571e+00 3.093220000000000081e+00 1.806389999999999940e+00 1.868060000000000054e+00 3.074440000000000062e+00 1.794950000000000045e+00 6.843689999999999607e+00 1.570009999999999906e+00 4.452759999999999607e+00 1.868549999999999933e+00 1.539760000000000018e+00 4.460169999999999746e+00 6.880020000000000024e+00 1.561900000000000066e+00 8.730200000000000182e-01 2.440119999999999845e+00 1.538329999999999975e+00 9.264200000000000212e-01 7.420340000000000380e+00 2.330000000000000040e-03 3.584750000000000103e+00 2.428049999999999820e+00 -3.461000000000000187e-02 3.608649999999999913e+00 7.421079999999999899e+00 4.641960000000000086e+00 9.000000000000000222e-01 2.435410000000000075e+00 4.623870000000000147e+00 9.074999999999999734e-01 7.415020000000000167e+00 3.109989999999999810e+00 3.568690000000000140e+00 2.476440000000000197e+00 3.075849999999999973e+00 3.565059999999999896e+00 7.393720000000000070e+00 9.360000000000000264e-03 1.797400000000000109e+00 9.878339999999999677e+00 -1.611820000000000030e+00 4.446670000000000122e+00 4.994060000000000166e+00 -1.587550000000000017e+00 4.485829999999999984e+00 9.883620000000000516e+00 3.082609999999999850e+00 1.829499999999999904e+00 4.979989999999999917e+00 3.132130000000000081e+00 1.800580000000000069e+00 2.488999999999999893e-02 1.561190000000000078e+00 4.458160000000000345e+00 4.990409999999999791e+00 1.516529999999999934e+00 4.437820000000000320e+00 1.429000000000000062e-02
1.614319999999999977e+00 8.732699999999999907e-01 4.372679999999999900e+00 1.580920000000000103e+00 9.404400000000000537e-01 9.120870000000000033e+00 -7.570999999999999952e-02 3.555559999999999832e+00 4.335429999999999673e+00 -3.590000000000000135e-02 3.499159999999999826e+00 9.254550000000000054e+00 4.340840000000000032e+00 8.091899999999999649e-01 4.311619999999999564e+00 4.544229999999999769e+00 8.422300000000000342e-01 9.196719999999999118e+00 3.049129999999999896e+00 3.584789999999999921e+00 4.208370000000000388e+00 3.042429999999999968e+00 3.561990000000000212e+00 9.197060000000000457e+00 2.333000000000000004e-02 1.788659999999999917e+00 1.845949999999999980e+00 -7.429999999999999973e-03 1.798729999999999940e+00 6.856830000000000425e+00 -1.409270000000000023e+00 4.502279999999999838e+00 1.895229999999999970e+00 -1.461359999999999992e+00 4.448290000000000077e+00 6.824150000000000382e+00 2.987530000000000019e+00 1.850959999999999939e+00 1.838989999999999903e+00 3.072130000000000027e+00 1.850880000000000081e+00 6.757530000000000037e+00 1.502769999999999939e+00 4.380309999999999704e+00 1.853210000000000024e+00 1.496569999999999956e+00 4.404560000000000031e+00 6.807570000000000121e+00 1.480769999999999920e+00 9.093599999999999461e-01 2.538720000000000088e+00 1.556669999999999998e+00 8.934999999999999609e-01 7.272929999999999673e+00 -2.864999999999999838e-02 3.467020000000000213e+00 2.507719999999999949e+00 3.080000000000000099e-02 3.537630000000000052e+00 7.388130000000000308e+00 4.501219999999999999e+00 8.599099999999999522e-01 2.473720000000000141e+00 4.531279999999999752e+00 8.899299999999999988e-01 7.371780000000000221e+00 3.011540000000000106e+00 3.581820000000000004e+00 2.346060000000000034e+00 3.075130000000000141e+00 3.568119999999999958e+00 7.358399999999999608e+00 8.112999999999999379e-02 1.800240000000000062e+00 9.765109999999999957e+00 -1.584279999999999911e+00 4.428359999999999630e+00 4.952849999999999753e+00 -1.429300000000000015e+00 4.397420000000000329e+00 5.380000000000000060e-02 2.957669999999999799e+00 1.876749999999999918e+00 4.945240000000000080e+00 3.038089999999999957e+00 1.778929999999999900e+00 1.794000000000000108e-02 1.478399999999999936e+00 4.312909999999999577e+00 4.921129999999999782e+00 1.571329999999999893e+00 4.462390000000000079e+00 9.820589999999999264e+00
1.616340000000000110e+00 7.106500000000000039e-01 4.409189999999999721e+00 1.394849999999999923e+00 6.248399999999999510e-01 9.547850000000000392e+00 -1.620900000000000118e-01 4.099520000000000053e+00 4.361030000000000406e+00 -1.083299999999999957e-01 3.528169999999999806e+00 9.447670000000000456e+00 4.264890000000000292e+00 5.952899999999999858e-01 4.377220000000000333e+00 4.508390000000000342e+00 7.689500000000000224e-01 9.468299999999999272e+00 3.069929999999999826e+00 3.512160000000000171e+00 4.453540000000000276e+00 3.108200000000000074e+00 3.284370000000000012e+00 9.564159999999999329e+00 3.722000000000000308e-02 1.809989999999999988e+00 2.008010000000000073e+00 -1.998600000000000099e-01 1.714169999999999972e+00 7.249259999999999593e+00 -1.528939999999999966e+00 4.625499999999999723e+00 1.890660000000000007e+00 -1.744650000000000034e+00 4.419880000000000031e+00 7.002220000000000333e+00 3.238430000000000142e+00 1.815839999999999899e+00 1.899799999999999933e+00 2.851700000000000124e+00 1.721060000000000034e+00 7.076870000000000438e+00 1.680889999999999995e+00 4.478819999999999801e+00 1.849269999999999969e+00 1.497579999999999911e+00 4.449049999999999727e+00 7.025489999999999569e+00 1.606430000000000025e+00 8.242300000000000182e-01 2.466499999999999915e+00 1.418190000000000062e+00 7.723499999999999810e-01 7.567070000000000185e+00 -6.940000000000000335e-02 3.749610000000000110e+00 2.477329999999999810e+00 -1.197899999999999937e-01 3.545479999999999965e+00 7.482980000000000409e+00 4.727999999999999758e+00 7.355399999999999716e-01 2.490969999999999906e+00 4.433609999999999829e+00 7.568300000000000027e-01 7.520529999999999937e+00 3.173810000000000020e+00 3.497259999999999813e+00 2.420080000000000009e+00 3.038590000000000124e+00 3.539769999999999861e+00 7.622530000000000250e+00 -1.975500000000000034e-01 1.578629999999999978e+00 1.004734000000000016e+01 -1.739610000000000101e+00 4.487029999999999852e+00 5.139429999999999943e+00 -1.515169999999999906e+00 4.659480000000000288e+00 5.965999999999999776e-02 3.029869999999999841e+00 1.772250000000000103e+00 5.156060000000000088e+00 2.972630000000000106e+00 1.574500000000000011e+00 1.010655000000000037e+01 1.581120000000000081e+00 4.419299999999999784e+00 5.027219999999999800e+00 1.632079999999999975e+00 4.528880000000000017e+00 3.835999999999999827e-02
1.668989999999999974e+00 8.178299999999999459e-01 4.292250000000000121e+00 1.576440000000000063e+00 9.154200000000000115e-01 9.226940000000000808e+00 -9.820000000000000603e-03 3.701690000000000147e+00 4.314610000000000056e+00 -9.849999999999999381e-03 3.594370000000000065e+00 9.221859999999999502e+00 4.486950000000000216e+00 8.198100000000000387e-01 4.291009999999999991e+00 4.617160000000000153e+00 8.901799999999999713e-01 9.212279999999999802e+00 3.075390000000000068e+00 3.543340000000000156e+00 4.274040000000000283e+00 3.101259999999999906e+00 3.565659999999999830e+00 9.227050000000000196e+00 -1.573000000000000093e-02 1.786540000000000017e+00 1.840850000000000097e+00 2.248999999999999957e-02 1.802240000000000064e+00 6.982249999999999623e+00 -1.576920000000000099e+00 4.458359999999999879e+00 1.849239999999999995e+00 -1.598579999999999890e+00 4.429859999999999687e+00 6.811340000000000394e+00 3.053220000000000045e+00 1.774380000000000068e+00 1.875229999999999952e+00 3.130380000000000162e+00 1.797139999999999960e+00 6.787460000000000271e+00 1.503880000000000106e+00 4.422489999999999810e+00 1.852880000000000082e+00 1.540529999999999955e+00 4.477260000000000240e+00 6.762319999999999887e+00 1.505120000000000013e+00 9.099000000000000421e-01 2.461669999999999803e+00 1.569450000000000012e+00 9.103400000000000380e-01 7.310539999999999594e+00 -1.555999999999999918e-02 3.514299999999999979e+00 2.466009999999999813e+00 -9.129999999999999227e-03 3.583919999999999995e+00 7.297950000000000159e+00 4.657239999999999824e+00 8.853299999999999503e-01 2.463109999999999911e+00 4.666669999999999874e+00 8.993999999999999773e-01 7.305570000000000341e+00 3.076779999999999848e+00 3.554809999999999803e+00 2.421510000000000051e+00 3.051820000000000199e+00 3.554910000000000014e+00 7.360870000000000246e+00 1.169000000000000074e-02 1.809239999999999959e+00 9.737849999999999895e+00 -1.587919999999999998e+00 4.426140000000000185e+00 4.959909999999999819e+00 -1.571550000000000002e+00 4.451810000000000045e+00 2.200000000000000133e-03 3.091990000000000016e+00 1.795609999999999928e+00 4.894630000000000258e+00 3.087229999999999919e+00 1.756329999999999947e+00 9.140000000000000555e-03 1.553420000000000023e+00 4.431799999999999962e+00 4.870280000000000165e+00 1.512569999999999970e+00 4.461890000000000356e+00 4.640000000000000027e-03
1.685319999999999929e+00 6.537699999999999623e-01 4.254719999999999835e+00 1.682849999999999957e+00 3.701599999999999890e-01 9.353070000000000661e+00 -4.982000000000000317e-02 3.731780000000000097e+00 4.251829999999999998e+00 4.923000000000000292e-02 3.278680000000000039e+00 9.439339999999999620e+00 4.386739999999999640e+00 6.185699999999999532e-01 4.397369999999999557e+00 4.773850000000000371e+00 5.674599999999999644e-01 9.306630000000000180e+00 3.174310000000000187e+00 3.609189999999999898e+00 4.550740000000000229e+00 3.121129999999999960e+00 3.146209999999999951e+00 9.447160000000000224e+00 4.932000000000000273e-02 1.886339999999999906e+00 1.817029999999999923e+00 3.588000000000000217e-02 1.185640000000000027e+00 6.985490000000000421e+00 -1.969710000000000072e+00 4.696250000000000036e+00 2.020169999999999799e+00 -1.593029999999999946e+00 4.027739999999999654e+00 6.909250000000000114e+00 2.985339999999999883e+00 1.778659999999999908e+00 2.125879999999999992e+00 3.174129999999999896e+00 1.426909999999999901e+00 6.940120000000000289e+00 1.431310000000000082e+00 4.781819999999999737e+00 1.792569999999999997e+00 1.438830000000000053e+00 4.081970000000000098e+00 6.886860000000000426e+00 1.376730000000000009e+00 8.707599999999999785e-01 2.384819999999999940e+00 1.578419999999999934e+00 4.215400000000000258e-01 7.467920000000000336e+00 -1.067799999999999999e-01 3.747980000000000089e+00 2.305239999999999956e+00 -2.919999999999999853e-03 3.028099999999999792e+00 7.454659999999999620e+00 4.642319999999999780e+00 8.928899999999999615e-01 2.693900000000000183e+00 4.709360000000000213e+00 4.513099999999999890e-01 7.441130000000000244e+00 2.982779999999999987e+00 3.626040000000000152e+00 2.654370000000000118e+00 3.115209999999999813e+00 3.254879999999999995e+00 7.420270000000000366e+00 9.143999999999999351e-02 1.486590000000000078e+00 9.887879999999999114e+00 -1.513339999999999907e+00 4.420630000000000059e+00 4.996819999999999595e+00 -1.749989999999999934e+00 4.057879999999999932e+00 9.837519999999999598e+00 2.903459999999999930e+00 1.800359999999999960e+00 5.092130000000000045e+00 3.245490000000000208e+00 1.632660000000000000e+00 1.981300000000000006e-01 1.545269999999999921e+00 4.393790000000000084e+00 5.074959999999999916e+00 1.716150000000000064e+00 4.848900000000000432e+00 3.047000000000000056e-02
1.832089999999999996e+00 6.796100000000000474e-01 4.232260000000000133e+00 1.806300000000000017e+00 8.720400000000000373e-01 9.228509999999999991e+00 8.351999999999999702e-02 3.732310000000000016e+00 4.407799999999999940e+00 7.946999999999999897e-02 3.694339999999999957e+00 9.356450000000000600e+00 4.433589999999999698e+00 1.050100000000000033e+00 4.393589999999999662e+00 5.053619999999999557e+00 8.024499999999999966e-01 9.223969999999999558e+00 3.068029999999999813e+00 3.796289999999999942e+00 4.256960000000000299e+00 3.284629999999999939e+00 3.578619999999999912e+00 9.166420000000000456e+00 1.085099999999999953e-01 1.860929999999999973e+00 1.934439999999999937e+00 4.934000000000000191e-02 1.746220000000000105e+00 7.105520000000000280e+00 -1.269819999999999949e+00 4.675519999999999676e+00 1.836750000000000105e+00 -1.405520000000000103e+00 4.571550000000000225e+00 6.785529999999999617e+00 3.398249999999999993e+00 2.084159999999999791e+00 1.873499999999999943e+00 3.203430000000000000e+00 2.046469999999999789e+00 6.690669999999999895e+00 1.707359999999999989e+00 4.770950000000000024e+00 1.913310000000000066e+00 1.519030000000000102e+00 4.777389999999999581e+00 6.879030000000000200e+00 1.749440000000000106e+00 1.031099999999999905e+00 2.247090000000000032e+00 1.804510000000000058e+00 8.707599999999999785e-01 7.268060000000000187e+00 1.022200000000000053e-01 3.692060000000000120e+00 2.464700000000000113e+00 1.989799999999999902e-01 3.598879999999999857e+00 7.445059999999999789e+00 4.883910000000000196e+00 9.517200000000000104e-01 2.544000000000000039e+00 4.702499999999999680e+00 1.014499999999999957e+00 7.489020000000000010e+00 3.418670000000000098e+00 3.758610000000000007e+00 2.354890000000000150e+00 3.209560000000000191e+00 3.769969999999999821e+00 7.395509999999999806e+00 1.779499999999999971e-01 1.591590000000000060e+00 9.798209999999999198e+00 -1.707549999999999901e+00 4.453590000000000160e+00 4.952880000000000393e+00 -1.261689999999999978e+00 4.730680000000000440e+00 9.718500000000000583e+00 2.928059999999999885e+00 1.989109999999999934e+00 4.773069999999999702e+00 3.572979999999999823e+00 1.884859999999999980e+00 9.777950000000000585e+00 1.649149999999999894e+00 4.743350000000000399e+00 5.188390000000000057e+00 1.718820000000000014e+00 4.635979999999999990e+00 9.733100000000000307e+00
1.729579999999999895e+00 7.840300000000000047e-01 4.338530000000000442e+00 1.566389999999999949e+00 8.642800000000000482e-01 9.384690000000000865e+00 1.873999999999999971e-02 3.793109999999999982e+00 4.313100000000000378e+00 -8.250000000000000389e-03 3.543299999999999894e+00 9.402850000000000819e+00 4.432380000000000209e+00 7.478399999999999492e-01 4.349389999999999645e+00 4.632620000000000182e+00 8.544300000000000228e-01 9.386409999999999698e+00 3.074860000000000149e+00 3.555509999999999948e+00 4.363179999999999836e+00 3.129210000000000047e+00 3.550399999999999778e+00 9.403779999999999362e+00 -2.890000000000000208e-03 1.779029999999999889e+00 1.881129999999999969e+00 2.543000000000000121e-02 1.758699999999999930e+00 7.060299999999999798e+00 -1.548229999999999995e+00 4.464400000000000368e+00 1.864649999999999919e+00 -1.536140000000000061e+00 4.423919999999999852e+00 6.912659999999999805e+00 3.093599999999999905e+00 1.801579999999999959e+00 1.870190000000000019e+00 3.116490000000000204e+00 1.763749999999999929e+00 6.883359999999999701e+00 1.551630000000000065e+00 4.470309999999999562e+00 1.864419999999999966e+00 1.561520000000000019e+00 4.431300000000000239e+00 6.932830000000000048e+00 1.539930000000000021e+00 8.936600000000000099e-01 2.480879999999999974e+00 1.555239999999999956e+00 8.666300000000000114e-01 7.428589999999999804e+00 -1.668999999999999997e-02 3.584540000000000060e+00 2.482479999999999798e+00 -5.199999999999999761e-03 3.505479999999999929e+00 7.475649999999999906e+00 4.613870000000000360e+00 8.888800000000000034e-01 2.480490000000000084e+00 4.643860000000000099e+00 8.636700000000000488e-01 7.462139999999999773e+00 3.076049999999999951e+00 3.596060000000000034e+00 2.464789999999999814e+00 3.133140000000000036e+00 3.548399999999999999e+00 7.506009999999999849e+00 3.534999999999999948e-02 1.752099999999999991e+00 9.954219999999999402e+00 -1.597969999999999891e+00 4.431309999999999860e+00 4.990960000000000285e+00 -1.520920000000000050e+00 4.430259999999999643e+00 9.953200000000000713e+00 3.120400000000000063e+00 1.836719999999999908e+00 5.011589999999999989e+00 3.117039999999999811e+00 1.784529999999999950e+00 2.929999999999999966e-02 1.606759999999999966e+00 4.433200000000000252e+00 5.066559999999999953e+00 1.565839999999999899e+00 4.438270000000000159e+00 9.934049999999999159e+00
2.161589999999999900e+00 5.918600000000000527e-01 4.317109999999999559e+00 1.607259999999999911e+00 8.851299999999999724e-01 9.378619999999999735e+00 -1.155899999999999983e-01 3.434120000000000061e+00 4.514960000000000306e+00 -5.349999999999999895e-02 3.561490000000000045e+00 9.682150000000000034e+00 3.937969999999999970e+00 6.331999999999999851e-01 4.370099999999999874e+00 4.687680000000000291e+00 8.357499999999999929e-01 9.450770000000000337e+00 2.955169999999999852e+00 3.822140000000000093e+00 4.392820000000000391e+00 3.155510000000000037e+00 3.601490000000000080e+00 9.346519999999999939e+00 1.333100000000000118e-01 1.701130000000000031e+00 2.101490000000000080e+00 -3.231899999999999773e-01 1.948790000000000022e+00 7.283599999999999852e+00 -1.419850000000000056e+00 4.500840000000000174e+00 1.958139999999999992e+00 -1.726969999999999894e+00 4.768919999999999604e+00 6.799500000000000099e+00 3.253070000000000128e+00 1.967659999999999965e+00 1.866239999999999899e+00 2.936529999999999863e+00 1.915450000000000097e+00 6.897219999999999906e+00 1.747759999999999980e+00 4.463669999999999582e+00 1.891259999999999941e+00 1.373839999999999950e+00 4.584410000000000096e+00 6.935360000000000191e+00 1.735829999999999984e+00 1.026639999999999997e+00 2.532910000000000217e+00 1.222930000000000073e+00 1.048689999999999900e+00 7.475830000000000197e+00 5.269999999999999685e-02 3.582269999999999843e+00 2.550809999999999800e+00 -2.623900000000000121e-01 3.749779999999999891e+00 7.559190000000000076e+00 4.656679999999999708e+00 9.113700000000000134e-01 2.470819999999999794e+00 4.500070000000000014e+00 9.055999999999999606e-01 7.552719999999999878e+00 3.127660000000000107e+00 3.706589999999999829e+00 2.455299999999999816e+00 2.880430000000000046e+00 3.704299999999999926e+00 7.568010000000000126e+00 4.445000000000000340e-02 1.818780000000000063e+00 9.877800000000000580e+00 -1.439720000000000111e+00 4.538899999999999935e+00 5.071209999999999773e+00 -1.425499999999999989e+00 4.519260000000000055e+00 1.095000000000000001e-01 3.101140000000000008e+00 2.169470000000000010e+00 5.144829999999999792e+00 3.102549999999999919e+00 1.784669999999999979e+00 1.007502999999999993e+01 1.227279999999999927e+00 4.561860000000000248e+00 5.081129999999999924e+00 1.477999999999999980e+00 4.544459999999999944e+00 1.006450000000000067e+01