1.696499999999999897e+00 9.044100000000000472e-01 3.111709999999999976e+00 1.763120000000000021e+00 8.376700000000000257e-01 7.249850000000000350e+00 8.240000000000000796e-03 3.528350000000000097e+00 3.111559999999999881e+00 4.850000000000000144e-03 3.604890000000000150e+00 7.256730000000000125e+00 -2.000480000000000036e+00 6.542169999999999597e+00 3.088400000000000034e+00 -1.701999999999999957e+00 6.385530000000000150e+00 7.253650000000000375e+00 5.017140000000000377e+00 9.058899999999999730e-01 3.109129999999999949e+00 5.057959999999999567e+00 8.314500000000000224e-01 7.246879999999999988e+00 3.243390000000000217e+00 3.646490000000000009e+00 3.113119999999999887e+00 3.309600000000000097e+00 3.626539999999999875e+00 7.249670000000000059e+00 1.675450000000000106e+00 6.503650000000000375e+00 3.114069999999999894e+00 1.604389999999999983e+00 6.411929999999999907e+00 7.249550000000000161e+00 -2.784999999999999976e-02 1.814769999999999994e+00 1.007419999999999982e+00 3.361999999999999711e-02 1.753889999999999949e+00 5.207290000000000418e+00 -1.780869999999999953e+00 4.605170000000000208e+00 1.046059999999999990e+00 -1.726320000000000077e+00 4.543449999999999989e+00 5.177950000000000053e+00 -3.486509999999999998e+00 7.435220000000000162e+00 9.933400000000000007e-01 -3.415259999999999962e+00 7.377740000000000187e+00 5.219249999999999723e+00 3.292199999999999793e+00 1.846309999999999896e+00 1.036799999999999944e+00 3.356819999999999915e+00 1.790149999999999908e+00 5.182210000000000427e+00 1.530620000000000092e+00 4.637559999999999683e+00 1.052650000000000086e+00 1.600479999999999903e+00 4.586680000000000312e+00 5.165499999999999758e+00 -1.805700000000000083e-01 7.434720000000000439e+00 1.039889999999999981e+00 -1.202600000000000058e-01 7.386809999999999654e+00 5.178370000000000140e+00 -7.741200000000000303e-01 5.892559999999999576e+00 3.143489999999999895e+00 1.669769999999999976e+00 9.215900000000000203e-01 1.005009999999999959e+00 1.728490000000000082e+00 8.614199999999999635e-01 5.214760000000000062e+00 -7.696999999999999675e-02 3.680229999999999890e+00 1.057460000000000067e+00 -1.700000000000000122e-02 3.624769999999999825e+00 5.172480000000000189e+00 -1.816370000000000040e+00 6.476939999999999920e+00 9.871900000000000119e-01 -1.742329999999999934e+00 6.413610000000000255e+00 5.237070000000000114e+00 4.970699999999999896e+00 9.208399999999999919e-01 1.019630000000000036e+00 5.032379999999999853e+00 8.645500000000000407e-01 5.194829999999999615e+00 3.212120000000000086e+00 3.702770000000000117e+00 1.044100000000000028e+00 3.274809999999999999e+00 3.651269999999999794e+00 5.170060000000000322e+00 1.526180000000000092e+00 6.490039999999999587e+00 1.042059999999999986e+00 1.589590000000000058e+00 6.438240000000000407e+00 5.170930000000000248e+00 2.470999999999999933e-02 1.755349999999999966e+00 3.112849999999999895e+00 6.003000000000000003e-02 1.742469999999999963e+00 7.250810000000000421e+00 -1.701729999999999965e+00 4.412779999999999703e+00 3.110430000000000028e+00 -1.679559999999999942e+00 4.512839999999999741e+00 7.254940000000000389e+00 -3.492529999999999912e+00 7.480590000000000295e+00 3.107429999999999914e+00 -3.400760000000000005e+00 7.345110000000000028e+00 7.250440000000000218e+00 3.323879999999999946e+00 1.807819999999999983e+00 3.109140000000000015e+00 3.380900000000000016e+00 1.765149999999999997e+00 7.248149999999999871e+00 1.563700000000000090e+00 4.616340000000000110e+00 3.103769999999999918e+00 1.621599999999999930e+00 4.549479999999999968e+00 7.256610000000000227e+00 2.433000000000000093e-02 7.447639999999999816e+00 3.104800000000000004e+00 -6.701999999999999624e-02 7.340980000000000061e+00 7.250619999999999621e+00
1.609639999999999960e+00 1.019530000000000047e+00 3.244200000000000195e+00 1.603669999999999929e+00 1.029390000000000027e+00 7.472830000000000084e+00 6.600340000000000096e+00 3.692979999999999929e+00 3.193299999999999805e+00 6.539259999999999629e+00 3.808980000000000032e+00 7.391980000000000217e+00 4.775999999999999801e+00 7.194309999999999761e+00 3.609399999999999942e+00 4.795259999999999856e+00 6.662729999999999819e+00 7.463210000000000122e+00 4.893010000000000304e+00 9.513599999999999834e-01 3.212699999999999889e+00 4.827659999999999840e+00 1.041619999999999990e+00 7.474190000000000111e+00 3.321689999999999809e+00 3.723419999999999952e+00 3.189649999999999874e+00 3.222220000000000084e+00 3.845930000000000071e+00 7.382950000000000124e+00 1.646949999999999914e+00 6.579209999999999781e+00 3.241460000000000008e+00 1.566170000000000062e+00 6.656430000000000291e+00 7.532630000000000159e+00 6.508250000000000313e+00 1.858109999999999928e+00 1.056140000000000079e+00 6.441309999999999647e+00 1.935899999999999954e+00 5.362070000000000114e+00 4.941539999999999822e+00 4.609239999999999782e+00 9.031400000000000539e-01 4.922349999999999781e+00 4.818859999999999921e+00 5.272789999999999644e+00 3.292159999999999975e+00 7.518839999999999968e+00 1.108630000000000004e+00 3.114300000000000068e+00 7.658999999999999808e+00 5.472299999999999720e+00 3.259710000000000107e+00 1.868929999999999980e+00 1.094549999999999912e+00 3.237089999999999801e+00 1.925170000000000048e+00 5.331690000000000040e+00 1.716620000000000035e+00 4.713409999999999656e+00 1.079339999999999966e+00 1.692399999999999904e+00 4.785169999999999924e+00 5.302990000000000315e+00 6.541669999999999874e+00 7.565369999999999706e+00 1.034350000000000103e+00 6.499859999999999971e+00 7.568870000000000431e+00 5.459579999999999878e+00 5.255829999999999558e+00 6.232859999999999623e+00 2.767259999999999831e+00 1.661939999999999973e+00 9.087800000000000322e-01 1.043029999999999902e+00 1.591369999999999951e+00 1.012539999999999996e+00 5.298510000000000275e+00 6.560080000000000133e+00 3.733999999999999986e+00 1.091830000000000078e+00 6.543999999999999595e+00 3.807549999999999990e+00 5.344590000000000174e+00 4.917440000000000033e+00 6.512859999999999872e+00 8.959300000000000042e-01 4.782530000000000392e+00 6.725760000000000183e+00 5.465499999999999581e+00 4.882880000000000109e+00 9.480899999999999883e-01 1.051719999999999988e+00 4.846980000000000288e+00 9.346999999999999753e-01 5.261149999999999771e+00 3.313810000000000144e+00 3.759279999999999955e+00 1.043080000000000007e+00 3.319809999999999928e+00 3.814039999999999875e+00 5.357929999999999637e+00 1.658809999999999896e+00 6.587720000000000020e+00 1.057299999999999907e+00 1.582279999999999909e+00 6.638869999999999827e+00 5.262190000000000367e+00 6.500759999999999650e+00 1.879769999999999941e+00 3.173999999999999932e+00 6.453829999999999956e+00 1.954460000000000086e+00 7.424789999999999779e+00 4.978930000000000078e+00 4.524090000000000167e+00 3.252870000000000150e+00 4.903579999999999828e+00 4.743149999999999977e+00 7.429730000000000167e+00 3.116890000000000160e+00 7.688839999999999897e+00 3.139549999999999841e+00 3.130939999999999834e+00 7.658730000000000260e+00 7.409489999999999910e+00 3.278119999999999923e+00 1.880489999999999995e+00 3.198339999999999961e+00 3.210100000000000176e+00 1.957340000000000080e+00 7.432540000000000369e+00 1.715729999999999977e+00 4.719129999999999825e+00 3.190549999999999997e+00 1.627089999999999925e+00 4.807389999999999830e+00 7.420880000000000365e+00 6.553689999999999571e+00 7.584410000000000096e+00 3.074260000000000215e+00 6.457659999999999734e+00 7.650190000000000268e+00 7.445579999999999643e+00
1.549919999999999964e+00 1.000799999999999912e+00 3.300619999999999887e+00 1.603150000000000075e+00 1.007689999999999975e+00 8.234220000000000539e+00 6.565459999999999852e+00 3.806290000000000173e+00 3.311049999999999827e+00 6.643159999999999954e+00 3.741750000000000131e+00 8.055289999999999395e+00 4.808830000000000382e+00 6.081019999999999648e+00 3.084649999999999892e+00 5.004540000000000433e+00 6.439390000000000391e+00 8.367490000000000094e+00 4.907289999999999708e+00 1.101490000000000080e+00 3.243479999999999919e+00 4.925600000000000200e+00 1.113439999999999985e+00 8.212369999999999948e+00 3.227879999999999860e+00 3.607110000000000039e+00 3.310239999999999849e+00 3.418460000000000054e+00 3.711530000000000218e+00 8.106579999999999231e+00 1.644460000000000033e+00 6.515959999999999752e+00 3.548919999999999852e+00 1.794960000000000111e+00 6.429249999999999687e+00 8.392060000000000741e+00 6.477940000000000254e+00 1.866889999999999938e+00 9.282899999999999485e-01 6.412049999999999805e+00 1.921910000000000007e+00 5.805369999999999919e+00 4.921949999999999825e+00 4.513499999999999623e+00 8.967899999999999761e-01 4.988410000000000011e+00 4.784159999999999968e+00 5.782239999999999824e+00 3.386410000000000142e+00 7.333179999999999588e+00 8.016299999999999537e-01 3.267999999999999794e+00 7.560279999999999667e+00 5.862650000000000361e+00 3.269699999999999829e+00 1.788729999999999931e+00 9.776500000000000190e-01 3.285140000000000171e+00 1.938639999999999919e+00 5.660919999999999952e+00 1.896320000000000006e+00 4.520299999999999763e+00 8.664500000000000535e-01 1.842850000000000099e+00 4.650249999999999773e+00 5.633670000000000400e+00 6.549640000000000128e+00 7.417729999999999713e+00 1.232480000000000020e+00 6.605990000000000251e+00 7.524070000000000036e+00 6.242009999999999614e+00 5.055030000000000356e+00 7.087329999999999686e+00 4.006569999999999965e+00 1.664349999999999996e+00 8.041899999999999604e-01 1.471200000000000063e+00 1.658860000000000001e+00 1.076079999999999925e+00 6.280700000000000394e+00 6.594459999999999766e+00 3.692590000000000039e+00 1.457600000000000007e+00 6.506929999999999659e+00 3.774410000000000043e+00 6.131999999999999673e+00 4.925080000000000346e+00 6.338549999999999685e+00 1.250110000000000054e+00 4.891770000000000174e+00 6.602689999999999948e+00 5.947940000000000005e+00 4.887540000000000440e+00 9.848799999999999777e-01 1.297840000000000105e+00 4.848950000000000315e+00 1.073399999999999910e+00 6.315520000000000245e+00 3.276679999999999815e+00 3.628519999999999968e+00 1.426390000000000047e+00 3.401069999999999816e+00 3.744720000000000049e+00 6.229479999999999684e+00 1.829299999999999926e+00 6.434529999999999639e+00 9.361000000000000432e-01 1.693300000000000027e+00 6.478979999999999961e+00 5.950429999999999886e+00 6.476429999999999687e+00 1.948220000000000063e+00 3.845460000000000100e+00 6.534749999999999837e+00 1.919629999999999947e+00 8.672309999999999519e+00 4.871819999999999595e+00 4.366319999999999979e+00 3.784180000000000099e+00 4.982380000000000031e+00 4.668899999999999828e+00 8.561429999999999652e+00 3.242570000000000174e+00 7.505959999999999965e+00 3.856189999999999785e+00 3.423000000000000043e+00 7.399289999999999701e+00 8.353989999999999583e+00 3.174259999999999859e+00 1.762939999999999952e+00 3.722119999999999873e+00 3.340590000000000170e+00 1.974969999999999892e+00 8.764359999999999928e+00 1.765549999999999953e+00 4.623999999999999666e+00 3.845460000000000100e+00 1.818319999999999936e+00 4.492510000000000225e+00 8.629429999999999268e+00 6.689230000000000231e+00 7.605489999999999640e+00 3.184849999999999959e+00 6.571589999999999598e+00 7.461319999999999730e+00 8.194900000000000517e+00
1.626779999999999893e+00 9.381399999999999739e-01 3.237220000000000208e+00 1.562310000000000088e+00 9.451899999999999746e-01 7.436420000000000030e+00 6.308650000000000091e+00 3.532430000000000181e+00 3.250199999999999978e+00 6.184700000000000308e+00 3.643269999999999786e+00 7.388099999999999667e+00 4.997910000000000075e+00 6.676770000000000316e+00 3.341229999999999922e+00 5.057719999999999771e+00 6.459590000000000387e+00 7.366950000000000109e+00 4.796330000000000204e+00 8.816199999999999593e-01 3.252790000000000070e+00 4.772960000000000313e+00 9.205900000000000194e-01 7.384890000000000398e+00 3.075159999999999894e+00 3.698049999999999837e+00 3.205519999999999925e+00 3.119040000000000035e+00 3.705750000000000099e+00 7.342489999999999739e+00 2.039829999999999810e+00 6.609650000000000247e+00 3.131780000000000008e+00 1.826340000000000074e+00 6.539450000000000429e+00 7.312700000000000422e+00 6.464089999999999669e+00 1.734509999999999996e+00 1.144959999999999978e+00 6.355019999999999669e+00 1.895860000000000101e+00 5.432120000000000282e+00 4.713589999999999947e+00 4.624640000000000306e+00 1.169890000000000096e+00 4.834480000000000111e+00 4.609200000000000408e+00 5.215840000000000032e+00 3.426219999999999821e+00 7.483120000000000438e+00 9.685099999999999820e-01 3.442110000000000003e+00 7.499740000000000073e+00 5.386660000000000004e+00 3.238199999999999967e+00 1.839399999999999924e+00 1.113629999999999898e+00 3.155790000000000095e+00 1.740499999999999936e+00 5.359539999999999971e+00 1.511640000000000095e+00 4.650879999999999903e+00 1.021649999999999947e+00 1.685740000000000016e+00 4.648170000000000357e+00 5.282630000000000159e+00 6.631160000000000387e+00 7.574089999999999989e+00 1.056929999999999925e+00 6.584060000000000024e+00 7.547270000000000145e+00 5.261339999999999684e+00 6.053309999999999746e+00 5.774610000000000021e+00 3.217709999999999848e+00 1.689559999999999951e+00 9.059700000000000530e-01 1.128160000000000052e+00 1.475719999999999921e+00 9.507299999999999640e-01 5.244880000000000209e+00 6.340340000000000309e+00 3.600000000000000089e+00 1.036899999999999933e+00 6.327939999999999898e+00 3.633900000000000130e+00 5.185010000000000119e+00 4.977750000000000341e+00 6.551569999999999894e+00 1.008420000000000094e+00 4.963720000000000354e+00 6.510139999999999816e+00 5.302550000000000097e+00 4.796719999999999651e+00 9.620699999999999807e-01 9.874899999999999789e-01 4.848239999999999661e+00 9.740100000000000424e-01 5.242670000000000385e+00 3.100470000000000059e+00 3.721039999999999903e+00 1.084219999999999962e+00 3.195440000000000058e+00 3.759879999999999889e+00 5.227730000000000210e+00 1.915489999999999915e+00 6.557900000000000063e+00 1.123410000000000020e+00 1.759090000000000042e+00 6.543389999999999596e+00 5.180220000000000269e+00 6.413809999999999789e+00 1.728830000000000089e+00 3.106209999999999916e+00 6.315909999999999691e+00 1.827990000000000004e+00 7.306460000000000399e+00 4.759310000000000151e+00 4.377799999999999692e+00 3.088870000000000005e+00 4.653030000000000221e+00 4.694350000000000023e+00 7.377299999999999969e+00 3.513729999999999798e+00 7.594030000000000058e+00 3.197400000000000020e+00 3.408119999999999816e+00 7.454970000000000319e+00 7.382430000000000270e+00 3.163489999999999913e+00 1.818030000000000035e+00 3.221519999999999939e+00 3.225600000000000023e+00 1.854139999999999899e+00 7.280969999999999942e+00 1.542980000000000018e+00 4.783350000000000435e+00 3.166920000000000179e+00 1.502790000000000070e+00 4.609549999999999592e+00 7.248129999999999740e+00 6.777429999999999843e+00 7.549509999999999721e+00 3.159899999999999931e+00 6.565780000000000172e+00 7.586630000000000429e+00 7.189689999999999692e+00
1.891669999999999963e+00 9.702399999999999913e-01 3.831749999999999989e+00 1.746890000000000054e+00 8.053000000000000158e-01 8.496029999999999305e+00 6.479899999999999771e+00 3.595800000000000107e+00 3.812910000000000021e+00 6.705809999999999604e+00 3.656499999999999861e+00 8.519840000000000302e+00 4.851399999999999935e+00 6.930290000000000283e+00 4.242849999999999788e+00 5.244749999999999801e+00 6.452770000000000117e+00 8.503909999999999414e+00 5.021469999999999878e+00 9.265700000000000047e-01 3.903560000000000141e+00 5.014980000000000437e+00 8.559799999999999631e-01 8.475640000000000285e+00 3.289550000000000196e+00 3.671870000000000189e+00 3.880850000000000133e+00 3.450450000000000017e+00 3.478169999999999984e+00 8.693070000000000519e+00 1.823809999999999931e+00 6.322000000000000064e+00 3.876069999999999904e+00 1.919999999999999929e+00 6.322009999999999685e+00 8.578590000000000160e+00 6.689600000000000435e+00 1.803549999999999986e+00 1.472630000000000106e+00 6.567020000000000302e+00 1.761330000000000062e+00 6.086289999999999978e+00 4.944040000000000212e+00 4.225649999999999906e+00 1.345450000000000035e+00 5.128110000000000390e+00 4.629929999999999879e+00 6.174710000000000143e+00 3.502339999999999787e+00 7.238870000000000360e+00 1.482140000000000013e+00 3.434340000000000170e+00 7.363190000000000346e+00 6.200350000000000250e+00 3.308320000000000149e+00 1.571890000000000009e+00 1.374640000000000084e+00 3.446979999999999933e+00 1.885270000000000001e+00 6.403220000000000134e+00 1.724979999999999958e+00 4.503250000000000419e+00 1.413699999999999957e+00 1.898120000000000029e+00 4.585020000000000095e+00 6.311329999999999885e+00 6.876170000000000115e+00 7.562710000000000043e+00 1.261770000000000058e+00 6.765430000000000277e+00 7.359300000000000175e+00 6.263189999999999813e+00 5.437339999999999840e+00 6.183760000000000367e+00 3.306169999999999831e+00 1.633310000000000040e+00 7.151899999999999924e-01 1.015099999999999891e+00 1.813649999999999984e+00 1.046200000000000019e+00 6.034839999999999982e+00 6.597139999999999560e+00 3.631390000000000118e+00 1.058470000000000022e+00 6.606480000000000352e+00 3.768339999999999801e+00 5.818299999999999805e+00 5.269879999999999676e+00 6.328389999999999738e+00 1.070459999999999967e+00 5.031710000000000349e+00 6.416140000000000398e+00 5.957519999999999705e+00 5.075730000000000075e+00 1.112619999999999942e+00 8.783400000000000096e-01 4.984409999999999563e+00 9.077399999999999913e-01 5.781649999999999956e+00 3.257880000000000109e+00 3.400139999999999940e+00 9.937099999999999822e-01 3.406769999999999854e+00 3.588400000000000034e+00 5.819980000000000153e+00 1.893469999999999986e+00 6.253260000000000041e+00 9.438199999999999923e-01 1.872130000000000072e+00 6.434190000000000076e+00 5.770349999999999646e+00 6.498520000000000074e+00 1.738480000000000025e+00 3.465279999999999916e+00 6.708789999999999587e+00 1.804910000000000014e+00 8.162810000000000343e+00 4.879509999999999792e+00 4.334290000000000198e+00 3.106619999999999937e+00 5.147009999999999863e+00 4.549159999999999648e+00 8.153579999999999828e+00 3.257810000000000095e+00 7.293910000000000338e+00 3.417159999999999975e+00 3.624589999999999979e+00 7.184379999999999988e+00 8.232419999999999405e+00 3.468199999999999950e+00 1.707319999999999949e+00 3.271970000000000045e+00 3.323949999999999960e+00 1.791779999999999928e+00 8.112180000000000391e+00 1.747730000000000006e+00 4.366959999999999731e+00 3.457530000000000214e+00 1.881850000000000023e+00 4.513469999999999871e+00 8.223349999999999937e+00 6.713580000000000325e+00 7.333610000000000184e+00 3.236040000000000028e+00 6.903999999999999915e+00 7.260379999999999612e+00 7.983469999999999622e+00
1.754799999999999915e+00 9.521199999999999664e-01 3.122409999999999908e+00 1.927170000000000050e+00 8.787500000000000311e-01 7.378759999999999764e+00 6.583789999999999587e+00 3.790960000000000107e+00 3.112140000000000128e+00 6.813930000000000042e+00 3.572799999999999976e+00 7.377970000000000361e+00 4.539049999999999585e+00 6.235000000000000320e+00 2.689649999999999874e+00 4.990779999999999994e+00 6.479680000000000106e+00 7.383969999999999700e+00 4.946889999999999787e+00 9.537499999999999867e-01 3.164829999999999810e+00 5.134759999999999991e+00 1.009949999999999903e+00 7.446880000000000166e+00 3.388700000000000045e+00 3.607979999999999965e+00 3.285740000000000105e+00 3.535719999999999974e+00 3.672919999999999963e+00 7.400500000000000078e+00 1.659540000000000015e+00 6.415409999999999613e+00 3.042580000000000062e+00 1.723980000000000068e+00 6.486760000000000304e+00 7.249979999999999869e+00 6.695159999999999556e+00 1.815420000000000034e+00 9.273799999999999821e-01 6.777630000000000265e+00 1.855220000000000091e+00 5.292729999999999713e+00 4.975520000000000387e+00 4.533669999999999867e+00 9.011599999999999611e-01 5.088969999999999771e+00 4.613730000000000331e+00 5.365639999999999965e+00 3.205350000000000144e+00 7.456699999999999662e+00 8.922999999999999821e-01 3.411869999999999958e+00 7.373499999999999943e+00 5.268709999999999560e+00 3.304499999999999993e+00 1.838589999999999947e+00 9.964100000000000179e-01 3.457310000000000105e+00 1.946569999999999911e+00 5.350100000000000300e+00 1.724320000000000075e+00 4.608139999999999681e+00 1.043919999999999959e+00 1.775260000000000060e+00 4.537049999999999805e+00 5.241109999999999935e+00 6.472430000000000128e+00 7.500750000000000028e+00 1.080629999999999979e+00 6.658719999999999750e+00 7.537189999999999834e+00 5.423420000000000130e+00 5.559840000000000337e+00 6.378619999999999735e+00 3.526079999999999881e+00 1.755020000000000024e+00 9.119699999999999473e-01 1.079450000000000021e+00 1.875930000000000097e+00 9.604399999999999604e-01 5.273170000000000357e+00 6.662650000000000183e+00 3.630399999999999849e+00 1.059069999999999956e+00 6.751629999999999576e+00 3.742350000000000065e+00 5.246489999999999654e+00 4.846440000000000303e+00 6.552019999999999733e+00 9.622699999999999587e-01 5.010159999999999947e+00 6.511610000000000120e+00 5.415189999999999948e+00 5.020800000000000374e+00 1.007300000000000084e+00 1.000420000000000087e+00 5.108500000000000263e+00 9.453500000000000236e-01 5.485640000000000072e+00 3.348990000000000133e+00 3.659040000000000070e+00 9.496799999999999686e-01 3.460310000000000219e+00 3.788949999999999818e+00 5.299850000000000172e+00 1.617790000000000061e+00 6.466090000000000337e+00 1.054389999999999938e+00 1.801790000000000003e+00 6.461700000000000443e+00 5.325389999999999624e+00 6.677330000000000432e+00 1.869250000000000078e+00 3.108810000000000073e+00 6.845329999999999693e+00 1.727009999999999934e+00 7.346549999999999692e+00 4.959480000000000111e+00 4.587690000000000268e+00 3.040729999999999933e+00 5.104260000000000019e+00 4.630819999999999936e+00 7.436090000000000089e+00 3.197150000000000158e+00 7.383580000000000254e+00 3.222859999999999836e+00 3.313660000000000050e+00 7.422270000000000145e+00 7.495989999999999931e+00 3.399599999999999955e+00 1.840710000000000068e+00 3.279420000000000002e+00 3.538079999999999892e+00 1.828279999999999905e+00 7.392660000000000231e+00 1.649850000000000039e+00 4.660420000000000229e+00 3.207570000000000032e+00 1.850989999999999913e+00 4.434160000000000323e+00 7.362680000000000113e+00 6.791920000000000179e+00 7.564589999999999925e+00 3.196099999999999941e+00 6.693459999999999965e+00 7.406150000000000233e+00 7.335549999999999571e+00
1.634209999999999940e+00 8.921999999999999931e-01 3.107699999999999907e+00 1.921070000000000055e+00 8.773800000000000487e-01 7.342990000000000350e+00 6.672030000000000349e+00 3.512970000000000148e+00 3.176109999999999989e+00 6.587519999999999598e+00 3.724029999999999951e+00 7.309980000000000366e+00 4.942160000000000331e+00 7.050040000000000084e+00 3.093869999999999898e+00 4.911310000000000286e+00 6.451019999999999754e+00 7.281200000000000117e+00 5.040219999999999700e+00 8.672400000000000109e-01 3.153239999999999821e+00 5.055019999999999847e+00 1.057460000000000067e+00 7.190489999999999604e+00 3.150329999999999853e+00 3.602450000000000152e+00 3.091009999999999813e+00 3.238210000000000033e+00 3.677529999999999966e+00 7.155700000000000394e+00 1.672919999999999963e+00 6.518329999999999735e+00 3.017090000000000050e+00 1.546010000000000106e+00 6.598019999999999996e+00 7.219570000000000043e+00 6.631739999999999746e+00 1.782939999999999969e+00 1.001230000000000064e+00 6.688469999999999693e+00 1.784049999999999914e+00 5.167049999999999699e+00 4.836540000000000283e+00 4.613900000000000112e+00 8.761700000000000044e-01 4.767520000000000202e+00 4.683729999999999727e+00 5.181189999999999962e+00 3.166949999999999932e+00 7.450650000000000439e+00 9.726900000000000546e-01 3.187469999999999803e+00 7.360669999999999824e+00 5.150520000000000209e+00 3.269320000000000004e+00 1.837409999999999988e+00 1.039959999999999996e+00 3.276240000000000041e+00 1.856119999999999992e+00 5.123319999999999652e+00 1.513069999999999915e+00 4.625440000000000218e+00 1.134730000000000016e+00 1.531490000000000018e+00 4.749060000000000059e+00 5.357219999999999871e+00 6.502729999999999677e+00 7.500040000000000262e+00 9.325099999999999500e-01 6.463709999999999845e+00 7.545440000000000147e+00 5.322169999999999845e+00 5.853299999999999947e+00 5.857370000000000410e+00 3.136919999999999931e+00 1.657149999999999901e+00 9.099399999999999711e-01 9.684000000000000385e-01 1.760110000000000063e+00 8.734800000000000342e-01 5.144210000000000171e+00 6.525409999999999933e+00 3.661880000000000024e+00 1.050699999999999967e+00 6.495280000000000165e+00 3.743840000000000057e+00 5.109880000000000422e+00 4.943380000000000329e+00 6.436410000000000409e+00 1.089749999999999996e+00 4.916509999999999714e+00 6.460969999999999658e+00 5.214190000000000325e+00 5.040169999999999817e+00 9.684000000000000385e-01 1.053960000000000008e+00 4.953979999999999606e+00 9.256199999999999983e-01 5.245090000000000252e+00 3.199450000000000127e+00 3.766709999999999781e+00 1.121010000000000062e+00 3.072610000000000063e+00 3.655250000000000110e+00 5.268720000000000070e+00 1.533500000000000085e+00 6.564779999999999838e+00 1.034559999999999924e+00 1.533709999999999907e+00 6.585440000000000182e+00 5.377480000000000260e+00 6.621789999999999843e+00 1.760750000000000037e+00 3.105230000000000157e+00 6.755359999999999587e+00 1.778899999999999926e+00 7.242350000000000065e+00 4.913549999999999862e+00 4.246570000000000178e+00 3.200880000000000170e+00 4.849359999999999893e+00 4.590239999999999654e+00 7.240709999999999980e+00 3.076940000000000008e+00 7.466289999999999871e+00 3.129389999999999894e+00 3.278469999999999995e+00 7.335340000000000416e+00 7.327799999999999869e+00 3.217229999999999812e+00 1.790289999999999937e+00 3.024039999999999839e+00 3.388549999999999951e+00 1.867220000000000102e+00 7.295930000000000248e+00 1.381010000000000071e+00 4.705630000000000202e+00 3.191469999999999807e+00 1.599730000000000096e+00 4.622670000000000279e+00 7.289839999999999876e+00 6.679669999999999774e+00 7.503009999999999735e+00 3.297740000000000116e+00 6.509030000000000094e+00 7.416080000000000005e+00 7.260790000000000077e+00
1.661380000000000079e+00 9.492000000000000437e-01 3.135940000000000172e+00 1.640570000000000084e+00 1.010999999999999899e+00 7.304030000000000022e+00 6.447910000000000252e+00 3.678920000000000190e+00 3.119860000000000078e+00 6.434289999999999843e+00 3.827850000000000197e+00 7.249170000000000336e+00 4.963569999999999816e+00 7.089339999999999975e+00 3.368959999999999955e+00 4.946990000000000443e+00 6.660949999999999704e+00 7.266060000000000407e+00 4.857739999999999725e+00 9.826399999999999579e-01 3.132629999999999804e+00 4.824110000000000120e+00 1.009810000000000096e+00 7.277250000000000441e+00 3.161970000000000169e+00 3.770779999999999799e+00 3.119219999999999882e+00 3.206560000000000077e+00 3.821180000000000021e+00 7.237599999999999589e+00 1.866079999999999961e+00 6.635979999999999990e+00 3.126310000000000144e+00 1.724690000000000056e+00 6.597019999999999662e+00 7.288230000000000430e+00 6.453210000000000335e+00 1.872679999999999900e+00 1.004720000000000057e+00 6.444370000000000154e+00 1.922670000000000101e+00 5.235719999999999708e+00 4.799369999999999692e+00 4.674489999999999590e+00 9.600800000000000445e-01 4.802850000000000286e+00 4.821480000000000210e+00 5.163090000000000401e+00 3.403449999999999864e+00 7.551630000000000287e+00 1.063569999999999904e+00 3.315380000000000216e+00 7.625479999999999592e+00 5.255119999999999791e+00 3.248279999999999834e+00 1.893440000000000012e+00 1.024299999999999988e+00 3.234890000000000043e+00 1.931130000000000013e+00 5.207089999999999996e+00 1.616640000000000077e+00 4.735240000000000116e+00 1.033579999999999943e+00 1.595960000000000045e+00 4.761239999999999917e+00 5.199180000000000135e+00 6.622429999999999595e+00 7.598770000000000024e+00 9.897299999999999986e-01 6.613900000000000112e+00 7.619189999999999685e+00 5.242149999999999643e+00 5.738940000000000374e+00 6.094249999999999723e+00 2.832580000000000098e+00 1.645580000000000043e+00 9.141899999999999471e-01 1.025130000000000097e+00 1.598009999999999931e+00 9.869099999999999540e-01 5.192070000000000185e+00 6.438229999999999897e+00 3.737190000000000012e+00 1.041949999999999932e+00 6.419889999999999652e+00 3.784980000000000011e+00 5.178969999999999629e+00 5.035590000000000011e+00 6.564359999999999751e+00 9.161700000000000399e-01 4.948140000000000427e+00 6.700179999999999580e+00 5.293059999999999654e+00 4.849499999999999922e+00 9.526000000000000023e-01 1.053620000000000001e+00 4.860229999999999606e+00 9.638099999999999445e-01 5.207019999999999982e+00 3.209729999999999972e+00 3.765289999999999804e+00 1.001030000000000086e+00 3.236650000000000027e+00 3.827030000000000154e+00 5.190920000000000201e+00 1.783970000000000056e+00 6.600089999999999790e+00 1.076529999999999987e+00 1.751540000000000097e+00 6.625849999999999795e+00 5.204649999999999999e+00 6.480999999999999872e+00 1.837839999999999918e+00 3.120289999999999786e+00 6.417849999999999611e+00 1.924439999999999928e+00 7.264389999999999681e+00 4.797019999999999840e+00 4.537930000000000241e+00 3.094279999999999919e+00 4.831750000000000433e+00 4.775159999999999627e+00 7.243109999999999715e+00 3.337740000000000151e+00 7.684470000000000134e+00 3.112610000000000099e+00 3.287900000000000045e+00 7.641219999999999679e+00 7.269870000000000054e+00 3.212880000000000180e+00 1.937789999999999901e+00 3.126759999999999984e+00 3.256520000000000081e+00 1.947049999999999947e+00 7.274239999999999817e+00 1.523079999999999989e+00 4.754170000000000229e+00 3.120800000000000018e+00 1.592729999999999979e+00 4.777879999999999683e+00 7.263969999999999594e+00 6.731910000000000061e+00 7.669609999999999594e+00 3.156969999999999832e+00 6.584500000000000242e+00 7.657149999999999679e+00 7.304549999999999876e+00