-1.187813999999999925e+00 -5.646330000000000515e-01 -1.157953000000000010e+00 5.978210000000000468e-01 -1.260461999999999971e+00 -1.037417999999999951e+00 -6.917969999999999953e-01 -8.895589999999999886e-01 2.658606999999999942e+00 8.108490000000000419e-01 -6.502980000000000427e-01 -1.935208000000000039e+00 1.258656999999999915e+00 5.554400000000000448e-01 6.602930000000000188e-01 -8.198339999999999517e-01 -6.859340000000000437e-01 -1.614271999999999929e+00 4.457090000000000218e-01 1.635599999999999901e-02 -3.282189999999999830e-01 -1.758126999999999995e+00 1.569460999999999995e+00 -2.230949999999999989e+00 5.996979999999999533e-01 -1.072594999999999965e+00 -1.204970000000000069e-01 -6.394400000000000084e-02 5.645660000000000123e-01 -2.088019999999999876e-01 -1.192300000000000026e-01 -2.422254999999999825e+00 4.444549999999999890e-01 5.649600000000000177e-01 8.173369999999999802e-01 7.361769999999999703e-01 -7.117459999999999898e-01 1.631160000000000110e-01 4.697379999999999889e-01 -1.787058000000000035e+00 3.976339999999999875e-01 1.862638000000000016e+00 1.807749999999999968e+00 1.082260999999999918e+00 -3.917939000000000060e+00 8.436540000000000150e-01 1.012019000000000002e+00 -5.168789999999999774e-01 -9.110129999999999617e-01 2.782439999999999913e-01 9.021379999999999955e-01 2.494119999999999948e-01 -4.487470000000000070e-01 -1.044669999999999987e+00 -9.336590000000000167e-01 -1.455508999999999942e+00 -1.222855999999999943e+00 -4.905070000000000263e-01 -2.102650000000000075e-01 1.622163000000000022e+00 6.759220000000000228e-01 9.501389999999999558e-01 -8.787909999999999888e-01 5.353090000000000348e-01 2.575288000000000022e+00 2.383619999999999906e-01 -6.107770000000000143e-01 -9.264050000000000340e-01 -7.470329999999999471e-01 2.810929999999999818e-01 2.097348000000000212e+00 1.093690000000000051e+00 1.147730000000000000e-01 -5.280589999999999451e-01 4.357869999999999799e-01 1.562823999999999991e+00 -5.432900000000000507e-01 -2.494180000000000008e-01 -8.041789999999999772e-01 -2.448399999999999882e-02 2.714900000000000091e+00 3.543439999999999923e-01 -1.690735000000000099e+00 -4.637299999999999756e-01 7.226979999999999515e-01 2.460554999999999826e+00 1.594306999999999919e+00 -7.194749999999999757e-01 -2.461667999999999967e+00 -1.596222999999999947e+00 -9.146279999999999966e-01 9.161799999999999944e-01 3.482844000000000051e+00 3.329039999999999777e-01 5.453109999999999902e-01 -2.768999999999999795e-01 -3.574289999999999967e-01 2.104360000000000119e-01 -3.000260000000000149e-01 9.089190000000000325e-01 -6.691259999999999986e-01 -7.311800000000000244e-02 2.139210000000000000e-01 2.923350000000000115e-01 1.004801999999999973e+00
-2.979759000000000047e+00 1.166255999999999959e+00 1.653321000000000041e+00 2.053773000000000071e+00 -2.550571999999999839e+00 2.255615999999999843e+00 -2.859140000000000015e-01 9.114729999999999777e-01 -1.123880999999999908e+00 2.530670999999999893e+00 6.892200000000000548e-01 5.528410000000000268e-01 1.358570000000000055e+00 -1.012850000000000000e-01 1.682233000000000089e+00 8.057530000000000525e-01 -1.553647999999999918e+00 4.720300000000000051e-01 -1.715843000000000007e+00 9.523880000000000123e-01 -1.692965000000000053e+00 -2.666760000000000241e-01 -5.829119999999999857e-01 6.329669999999999463e-01 2.155797999999999881e+00 -4.006930000000000214e-01 -2.619432999999999900e+00 -1.315905000000000102e+00 -1.176752999999999938e+00 4.762239999999999807e-01 -1.087485999999999953e+00 -2.839929999999999843e+00 1.010129000000000055e+00 -1.293323000000000000e+00 -1.542065000000000019e+00 4.956340000000000190e-01 -1.966207999999999956e+00 1.982023000000000090e+00 1.423006999999999911e+00 8.596850000000000325e-01 1.540527999999999897e+00 -3.213750000000000218e-01 2.089689999999999881e-01 -6.211630000000000207e-01 2.438339999999999952e-01 7.536929999999999463e-01 1.993600000000000094e-01 6.677739999999999787e-01 -2.707959999999999812e-01 -1.305015000000000036e+00 -8.522149999999999448e-01 -9.225700000000000567e-02 3.306102000000000096e+00 9.688820000000000210e-01 1.441511999999999905e+00 -1.371126000000000067e+00 1.030813999999999897e+00 -1.882389000000000090e+00 5.798699999999999688e-02 -4.797199999999999798e-01 -2.246621999999999897e+00 2.917568999999999857e+00 1.734525000000000095e+00 1.907200000000000006e+00 -1.865083000000000046e+00 -1.248288999999999982e+00 -3.809455999999999953e+00 -6.428359999999999630e-01 -2.377720000000000111e-01 3.289389999999999814e-01 6.966639999999999500e-01 -1.587347999999999981e+00 9.676300000000000179e-02 7.275899999999999590e-01 2.860710000000000197e-01 1.626740000000000130e-01 7.918730000000000491e-01 1.047301000000000037e+00 1.545882999999999896e+00 -3.112200000000000036e-02 -6.361069999999999780e-01 2.655695999999999835e+00 -2.862799999999999789e-01 -2.058961000000000041e+00 2.565080000000000027e+00 1.068899999999999961e+00 -2.981593000000000160e+00 -3.893070000000000142e-01 -3.347439999999999860e-01 5.614959999999999951e-01 -1.559606000000000048e+00 1.490360000000000018e-01 -1.417090000000000016e-01 8.852510000000000101e-01 2.024878000000000178e+00 -2.416544000000000025e+00 8.782389999999999919e-01 -2.598679999999999879e-01 2.515990000000000171e-01 9.829930000000000057e-01 6.528880000000000239e-01 4.822219999999999840e-01 -3.015594000000000108e+00 -2.369638999999999829e+00 4.693910000000000027e-01
5.593369999999999731e-01 1.076576999999999895e+00 -1.046893999999999991e+00 8.767420000000000213e-01 -4.895379999999999732e-01 -3.234598999999999780e+00 1.181730000000000003e-01 -1.313757000000000064e+00 1.009430000000000049e+00 1.513771999999999895e+00 5.220999999999999946e-02 1.208855999999999931e+00 -2.149894999999999889e+00 3.841999999999999860e-01 1.113499000000000017e+00 -5.799870000000000303e-01 2.856411000000000033e+00 1.233673999999999937e+00 1.814369999999999872e-01 1.115880999999999901e+00 -7.945520000000000360e-01 -1.097088000000000063e+00 -3.893759999999999999e-01 4.013590000000000213e-01 4.387539999999999774e-01 5.144410000000000371e-01 -8.282030000000000225e-01 -1.009838999999999931e+00 -7.792300000000000615e-02 -8.317980000000000373e-01 1.262933000000000083e+00 -3.094930000000000181e-01 -2.093339999999999923e-01 3.935580000000000189e-01 -1.801650999999999891e+00 4.304000000000000187e-02 -3.541650000000000076e-01 -1.181437999999999988e+00 -5.730189999999999451e-01 1.698880000000000112e-01 -2.606879999999999753e-01 -1.656492000000000075e+00 -8.621170000000000222e-01 1.345469999999999999e-01 -7.935940000000000216e-01 -9.902299999999999991e-02 4.371499999999999692e-02 1.800580000000000069e+00 8.783879999999999466e-01 1.649712999999999985e+00 2.370617999999999892e+00 4.164109999999999756e-01 7.115050000000000541e-01 -4.322759999999999936e-01 -2.680759999999999810e-01 -4.217960000000000043e-01 -4.154329999999999967e-01 -1.587136000000000102e+00 4.353839999999999932e-01 1.562584999999999891e+00 9.900010000000000199e-01 4.459779999999999855e-01 1.543090999999999990e+00 -2.419830000000000036e-01 -2.670190000000000063e-01 -1.158962999999999965e+00 1.590439999999999909e-01 5.666550000000000198e-01 9.301439999999999708e-01 -7.748559999999999892e-01 3.429820000000000091e-01 -2.113380999999999954e+00 -2.937640000000000251e-01 -9.506909999999999528e-01 -1.691440000000000055e+00 1.101685999999999943e+00 -1.777050999999999936e+00 6.532280000000000308e-01 -3.617900000000000005e-01 -1.020836000000000077e+00 1.419690000000000119e-01 6.141039999999999832e-01 1.121852999999999989e+00 7.996140000000000470e-01 -1.187589000000000006e+00 -4.956240000000000090e-01 1.440361999999999920e+00 4.293899999999999800e-02 8.135710000000000441e-01 1.751400000000000068e+00 2.330959999999999976e-01 7.438519999999999577e-01 1.513471000000000011e+00 2.378382999999999914e+00 2.010339999999999794e+00 -3.568200000000000260e-01 7.630949999999999678e-01 -7.283469999999999667e-01 -4.942329999999999779e-01 -1.376894000000000062e+00 -2.578968000000000149e+00 -1.105809999999999960e+00 -8.475390000000000423e-01 -9.556170000000000497e-01 -1.780081999999999942e+00
-1.057800999999999991e+00 6.212280000000000024e-01 7.257600000000000162e-02 4.803769999999999984e-01 1.166930000000000023e+00 1.562227000000000032e+00 3.280779999999999808e-01 5.453900000000000414e-01 1.148471999999999937e+00 -3.315270000000000161e-01 -8.167940000000000200e-01 3.677929999999999811e-01 9.607940000000000369e-01 1.708215999999999957e+00 -1.039376000000000078e+00 1.083175999999999917e+00 4.718959999999999821e-01 1.428625999999999951e+00 -5.187800000000000189e-01 1.993429999999999924e-01 2.315999999999999916e-03 1.187330000000000052e-01 -1.250517000000000101e+00 -8.891940000000000399e-01 -1.053933000000000009e+00 2.111439999999999984e-01 -4.879200000000000204e-01 9.240220000000000100e-01 -1.233009999999999939e+00 8.751919999999999700e-01 -6.958299999999999486e-01 -1.633512999999999993e+00 -1.623116999999999921e+00 7.424490000000000256e-01 4.632919999999999816e-01 3.508100000000000107e-01 5.209909999999999819e-01 4.712009999999999810e-01 -8.204059999999999686e-01 -5.682920000000000194e-01 -1.996670000000000111e-01 -6.738700000000000245e-02 2.004052999999999862e+00 1.878405000000000102e+00 2.354173999999999989e+00 -1.943060000000000065e-01 6.651070000000000038e-01 -1.118999999999999986e-03 -1.625995999999999997e+00 9.996169999999999778e-01 -9.943999999999999714e-03 2.795881000000000061e+00 -2.632959999999999745e-01 1.167855000000000087e+00 2.668099999999999916e-01 1.289049999999999918e-01 -8.650719999999999521e-01 -5.434390000000000054e-01 1.084413000000000071e+00 1.219189000000000078e+00 -7.074869999999999770e-01 4.951450000000000018e-01 -6.429669999999999552e-01 -3.986620000000000164e-01 -7.403239999999999821e-01 -3.924750000000000183e-01 2.600270000000000081e-01 -1.979883999999999977e+00 4.703339999999999743e-01 -1.174868000000000023e+00 -2.965962999999999905e+00 2.288060000000000094e-01 4.798450000000000215e-01 1.390296999999999894e+00 -1.494280000000000053e-01 1.766957000000000111e+00 -1.654160999999999992e+00 -6.302750000000000297e-01 -1.383783999999999903e+00 8.998059999999999947e-01 -9.070390000000000397e-01 7.751409999999999689e-01 -2.266064000000000078e+00 -2.378673000000000037e+00 6.280510000000000259e-01 5.128869999999999818e-01 -8.178509999999999946e-01 2.128800000000000137e-01 1.154009000000000063e+00 -3.964509999999999978e-01 1.194433000000000078e+00 7.114599999999999813e-01 -1.583509999999999918e-01 -1.956058000000000074e+00 5.232339999999999769e-01 1.385782999999999987e+00 -2.745683000000000096e+00 -1.711144999999999916e+00 -8.482750000000000012e-01 3.395920000000000050e-01 1.289929999999999966e-01 1.396979999999999889e-01 -9.258410000000000251e-01 2.834200000000000053e-01 3.514669999999999739e-01
2.233156000000000141e+00 2.205373999999999945e+00 -2.802160000000000206e-01 -2.029748000000000108e+00 2.299892999999999965e+00 -1.776761000000000035e+00 -1.018910999999999900e+00 2.701600000000000112e-01 1.230512000000000050e+00 -1.712078999999999906e+00 -1.360109999999999930e-01 3.231430000000000136e-01 1.379137000000000057e+00 -2.497113000000000138e+00 -9.507879999999999665e-01 1.439183000000000101e+00 7.929030000000000244e-01 -1.352719999999999922e+00 3.769080000000000208e-01 -6.138040000000000163e-01 3.254270000000000218e-01 -7.412609999999999477e-01 -4.957799999999999985e-01 1.288616999999999901e+00 -1.246038999999999897e+00 -4.419549999999999867e-01 1.912490000000000023e-01 2.652970999999999968e+00 1.308915000000000051e+00 5.199249999999999705e-01 -1.158406999999999965e+00 -3.761559999999999904e-01 -1.243929000000000062e+00 6.236260000000000137e-01 -3.108349999999999724e-01 -1.822810999999999959e+00 -6.169240000000000279e-01 -6.342579999999999885e-01 4.659539999999999793e-01 2.333649999999999891e-01 -4.738080000000000069e-01 2.901329999999999742e-01 1.582961000000000062e+00 -9.197000000000000314e-03 1.458533999999999997e+00 4.435529999999999751e-01 3.095860000000000056e+00 -2.194820000000000104e-01 8.171100000000000030e-01 1.767393999999999910e+00 2.151352999999999849e+00 2.628869999999999818e-01 -3.896769999999999956e-01 -5.929050000000000153e-01 -3.371033000000000168e+00 -8.899999999999999925e-03 -1.052925000000000111e+00 8.947300000000000253e-01 1.192793999999999910e+00 1.143167000000000044e+00 -2.386850000000000083e-01 -1.588754000000000000e+00 -1.128182000000000018e+00 4.190229999999999788e-01 1.453609999999999902e-01 1.927666000000000102e+00 -8.352030000000000287e-01 -7.027889999999999970e-01 5.597959999999999603e-01 -2.092474999999999863e+00 8.548219999999999708e-01 1.020248999999999961e+00 5.658069999999999489e-01 -1.590613000000000055e+00 -1.253341999999999956e+00 7.435370000000000035e-01 -1.772849999999999981e-01 -1.442458000000000018e+00 1.693395999999999901e+00 1.526048999999999989e+00 7.845020000000000326e-01 -1.744148999999999949e+00 -2.208712999999999926e+00 4.692999999999999949e-02 2.007408999999999999e+00 1.958360000000000101e-01 9.097899999999999876e-01 1.276294999999999957e+00 -2.140940000000000065e+00 1.423319999999999863e-01 -4.733609999999999762e-01 -8.601879999999999526e-01 -1.521409999999999929e+00 -3.388559999999999905e-01 9.228950000000000209e-01 -4.988449999999999829e-01 -1.085256999999999916e+00 -2.795199999999999907e-01 9.554949999999999832e-01 -6.605579999999999785e-01 -2.350109999999999921e+00 -4.384640000000000204e-01 -2.821060000000000234e-01 1.708148999999999917e+00 -1.595380000000000131e-01
-2.056989999999999874e+00 9.071160000000000334e-01 1.549149999999999971e-01 -1.982391999999999932e+00 -1.006015000000000104e+00 1.570103999999999944e+00 -5.839860000000000051e-01 2.552659999999999929e-01 2.343780000000000030e-01 1.232609999999999956e-01 -5.373649999999999816e-01 -1.066781999999999897e+00 6.536170000000000035e-01 -5.443750000000000533e-01 1.555503000000000080e+00 5.632589999999999542e-01 -1.102006999999999959e+00 -1.417261000000000104e+00 -1.112878999999999952e+00 -6.690479999999999761e-01 4.593579999999999885e-01 3.101220000000000088e-01 1.261568000000000023e+00 1.594875000000000043e+00 -7.732120000000000104e-01 7.285949999999999926e-01 1.498396999999999979e+00 1.777088000000000001e+00 1.866557999999999939e+00 8.537479999999999514e-01 8.238370000000000415e-01 3.751269999999999882e-01 -1.169882000000000088e+00 6.940309999999999535e-01 -2.106000000000000094e-01 -2.705609999999999959e-01 7.204120000000000523e-01 -2.223390000000000088e-01 1.017854000000000037e+00 8.829860000000000486e-01 -1.002015000000000100e+00 3.413970000000000060e-01 2.870630000000000126e-01 5.628180000000000405e-01 1.006779000000000091e+00 -7.086800000000000044e-02 2.031099999999999919e-02 1.411667999999999923e+00 -3.152460000000000262e-01 -3.268119999999999914e-01 1.427309999999999968e-01 -9.205989999999999451e-01 -1.114913000000000043e+00 -8.476639999999999731e-01 -1.406090000000000118e-01 -7.982989999999999808e-01 -5.044729999999999492e-01 4.088240000000000207e-01 5.469600000000000156e-02 -4.097200000000000147e-02 2.216229999999999867e-01 1.212722000000000078e+00 -4.236500000000000266e-01 -1.034875999999999907e+00 -1.087400000000000033e-01 1.211772999999999989e+00 -1.989011000000000084e+00 -7.247149999999999981e-01 4.742739999999999734e-01 -1.514804000000000039e+00 2.698960000000000248e-01 1.844709999999999961e-01 2.527572000000000152e+00 1.225529999999999953e-01 -7.816229999999999567e-01 -1.573563000000000045e+00 1.187027000000000054e+00 -1.459141999999999939e+00 9.423000000000000820e-03 -8.479569999999999608e-01 -6.484569999999999501e-01 1.056180000000000035e-01 9.527900000000000258e-02 -3.722469999999999946e-01 1.877500000000000002e-01 7.805159999999999876e-01 -8.484460000000000335e-01 7.353189999999999449e-01 -1.498319999999999930e-01 -1.179095000000000004e+00 8.274500000000000188e-01 4.192300000000000193e-02 3.235430000000000250e-01 1.073966999999999894e+00 -1.256809999999999872e-01 -8.260309999999999597e-01 -2.380000000000000171e-03 1.609500000000000167e-02 -1.429664999999999964e+00 1.157367000000000035e+00 -9.241789999999999727e-01 -5.384120000000000017e-01 -1.917200000000000154e-02 6.568249999999999922e-01 -2.114040000000000086e-01
-1.433049999999999879e-01 -2.449439999999999951e-01 -2.712289999999999979e-01 1.127230000000000038e-01 -3.909279999999999977e-01 -2.340800000000000103e-01 3.653100000000000097e-02 -2.996739999999999959e-01 -6.207700000000000023e-02 1.109500000000000069e-02 -2.345430000000000015e-01 3.743599999999999706e-02 1.214699999999999981e-02 -1.962909999999999933e-01 -1.534510000000000041e-01 -1.513000000000000022e-03 -2.882819999999999827e-01 -1.575340000000000074e-01 -2.965920000000000223e-01 -2.766979999999999995e-01 -3.030689999999999773e-01 5.925600000000000311e-02 -1.461780000000000024e-01 -2.326439999999999897e-01 6.440800000000000691e-02 -5.645499999999999824e-02 -5.085709999999999953e-01 -3.471999999999999826e-03 -3.579379999999999784e-01 -1.443919999999999926e-01 -1.753480000000000039e-01 -2.905960000000000210e-01 -5.981700000000000211e-02 -2.795500000000000068e-02 -3.455340000000000078e-01 -7.489600000000000424e-02 9.885399999999999743e-02 2.027000000000000156e-03 -4.372449999999999948e-01 -1.098679999999999934e-01 -2.016000000000000014e-01 -1.985490000000000033e-01 -7.852800000000000058e-02 -3.284000000000000252e-01 -2.763430000000000053e-01 3.026570000000000094e-01 -3.546839999999999993e-01 -2.056880000000000097e-01 -7.178600000000000259e-02 -1.760420000000000040e-01 -2.257909999999999917e-01 -1.574210000000000054e-01 -2.225900000000000101e-01 2.600430000000000241e-01 5.442999999999999922e-03 2.119830000000000048e-01 1.697230000000000127e-01 2.241999999999999896e-02 1.147600000000000009e-01 1.932560000000000111e-01 -1.232509999999999994e-01 1.486300000000000121e-01 3.843429999999999902e-01 -9.053799999999999348e-02 2.882759999999999767e-01 1.795019999999999949e-01 -6.379899999999999460e-02 3.606059999999999821e-01 -6.432499999999999329e-02 8.541200000000000181e-02 2.754199999999999982e-01 1.211330000000000046e-01 -1.152999999999999945e-03 3.418220000000000147e-01 5.147500000000000409e-01 1.566839999999999899e-01 1.486490000000000034e-01 2.522400000000000198e-01 3.715799999999999659e-02 1.406759999999999955e-01 6.515500000000000458e-02 5.705400000000000055e-02 3.199440000000000062e-01 -2.792299999999999990e-02 2.849799999999999903e-02 2.560870000000000091e-01 2.195580000000000032e-01 1.621879999999999988e-01 2.767390000000000128e-01 2.397589999999999999e-01 -4.889299999999999896e-02 3.571250000000000258e-01 1.571940000000000004e-01 9.635299999999999421e-02 4.066629999999999967e-01 1.520209999999999895e-01 2.360399999999999998e-02 2.820670000000000122e-01 1.869300000000000128e-01 -9.707699999999999663e-02 2.601749999999999896e-01 2.078780000000000072e-01 1.180149999999999949e-01 2.197270000000000056e-01 2.967049999999999965e-01
6.916609999999999703e-01 1.028934000000000015e+00 -5.226039999999999575e-01 3.930930000000000257e-01 1.547300000000000064e-01 1.165560000000000068e-01 1.630630000000000135e-01 5.268850000000000477e-01 7.615790000000000060e-01 -1.048588000000000076e+00 9.887700000000000655e-02 -9.249200000000000477e-02 5.414390000000000036e-01 -5.029029999999999889e-01 -5.428260000000000307e-01 -4.972349999999999826e-01 -1.407819999999999905e-01 1.103888999999999898e+00 7.055519999999999570e-01 9.172029999999999905e-01 6.242699999999999916e-01 -9.398659999999999792e-01 1.223618000000000094e+00 1.315368000000000093e+00 8.566780000000000506e-01 3.009029999999999760e-01 1.001659999999999995e+00 -3.447810000000000041e-01 6.449899999999999523e-01 -5.136600000000000055e-01 9.117049999999999876e-01 -7.019600000000000284e-01 -1.311960000000000071e-01 1.515257000000000076e+00 -8.609489999999999643e-01 -1.307879999999999876e-01 9.342420000000000169e-01 2.849619999999999931e-01 5.245980000000000087e-01 -8.716009999999999591e-01 9.506320000000000325e-01 6.758290000000000131e-01 1.607588000000000017e+00 3.446960000000000024e-01 8.241479999999999917e-01 3.373169999999999780e-01 1.052626999999999979e+00 2.290116999999999958e+00 1.216148000000000007e+00 -1.204729999999999968e-01 -2.993100000000000205e-01 7.777770000000000516e-01 -5.538349999999999662e-01 5.892619999999999525e-01 -7.296869999999999745e-01 4.402900000000000147e-01 -1.735609999999999931e-01 -6.883000000000000229e-02 -6.236289999999999889e-01 -1.150994000000000073e+00 -1.832138000000000044e+00 -3.674499999999999988e-01 1.739109000000000016e+00 1.281920000000000004e-01 3.470400000000000151e-01 -1.665939000000000059e+00 1.283830000000000027e+00 1.622300000000000131e-02 7.468040000000000234e-01 8.397480000000000500e-01 1.073825999999999947e+00 -2.418130000000000002e-01 -7.676169999999999938e-01 -1.282431000000000099e+00 -2.127966999999999942e+00 3.793790000000000218e-01 -1.353512000000000048e+00 -1.658503000000000061e+00 1.900301999999999936e+00 -1.975255999999999901e+00 1.159358000000000111e+00 1.182606999999999964e+00 -2.036176000000000208e+00 -5.704019999999999646e-01 -2.080780000000000129e-01 -7.561229999999999896e-01 -1.828318000000000110e+00 -1.043827000000000060e+00 2.265896999999999828e+00 2.388491000000000142e+00 -1.285717999999999916e+00 -2.130148000000000152e+00 1.485411000000000037e+00 -1.918193999999999955e+00 2.783869999999999956e-01 -1.192809999999999926e+00 -8.297430000000000083e-01 -1.169049999999999950e-01 -4.774340000000000250e-01 -9.936260000000000092e-01 1.767722000000000016e+00 -2.357270000000000199e+00 -2.986050000000000093e+00 -1.959089999999999998e-01 -1.668560000000000043e+00
2.106200000000000086e-02 -1.462898000000000032e+00 1.107639999999999958e+00 1.046173000000000020e+00 -9.581460000000000532e-01 -2.154198000000000057e+00 -2.243960000000000121e-01 8.225869999999999571e-01 -3.243510000000000004e-01 -1.104022000000000059e+00 1.071007999999999960e+00 -1.685024000000000077e+00 -1.221386000000000083e+00 1.714882999999999935e+00 -3.827499999999999791e-01 -1.483880000000000088e+00 -5.439000000000000258e-03 2.671950999999999965e+00 -1.270151000000000030e+00 2.130049999999999999e-01 9.721640000000000281e-01 -1.067191999999999918e+00 1.321638000000000090e+00 1.543179999999999996e+00 -9.353280000000000483e-01 6.684160000000000101e-01 -7.032049999999999690e-01 1.990493999999999986e+00 1.484959999999999891e-01 9.335560000000000525e-01 2.796259999999999857e-01 9.080199999999999383e-02 2.982699999999999796e-01 -1.828690000000000038e-01 -8.151739999999999542e-01 -2.185982999999999787e+00 -1.676970000000000127e-01 7.149699999999999944e-01 1.245060999999999973e+00 -1.041627999999999998e+00 -6.198909999999999698e-01 1.090413000000000077e+00 1.000042000000000098e+00 -9.001109999999999944e-01 7.447800000000000253e-02 1.591561000000000003e+00 -1.771044000000000063e+00 7.250099999999999600e-02 8.741999999999999771e-03 9.340439999999999854e-01 4.278230000000000088e-01 -2.383659999999999946e-01 4.442349999999999910e-01 -5.635229999999999961e-01 1.059036000000000088e+00 -4.572019999999999973e-01 4.003999999999999920e-02 1.787620000000000042e-01 -1.739664000000000099e+00 -1.141753999999999936e+00 -4.582780000000000187e-01 -5.348709999999999853e-01 2.719770000000000021e+00 1.629038999999999904e+00 6.853780000000000427e-01 3.678790000000000115e-01 3.036039000000000154e+00 -6.204410000000000203e-01 5.118780000000000552e-01 -1.228229000000000015e+00 -7.840489999999999959e-01 -1.581444000000000072e+00 -9.511889999999999512e-01 7.737309999999999466e-01 6.780100000000000016e-02 6.465700000000000613e-02 -9.906559999999999810e-01 1.205572000000000088e+00 -3.404679999999999929e-01 1.975940000000000030e+00 -9.097880000000000411e-01 -3.201941000000000148e+00 -9.299999999999999727e-05 8.515519999999999756e-01 -5.692570000000000130e-01 3.059509999999999730e-01 -1.151391999999999971e+00 9.311469999999999470e-01 -7.494739999999999736e-01 1.703543999999999947e+00 4.441039999999999988e-01 2.050599999999999992e-02 -2.031640000000000112e-01 -1.185519999999999907e+00 7.764130000000000198e-01 -1.885362999999999900e+00 1.587660999999999989e+00 -2.479699999999999960e-02 -9.173820000000000308e-01 2.888740000000000197e-01 -1.616160000000000097e-01 -6.002690000000000525e-01 1.714776999999999996e+00 -8.643599999999999894e-02 -1.515482999999999913e+00
-2.847230000000000039e-01 4.886659999999999893e-01 -1.360719999999999985e-01 2.976119999999999877e-01 8.162850000000000383e-01 1.685213999999999990e+00 6.486969999999999681e-01 -8.840139999999999665e-01 -2.946711000000000080e+00 4.823219999999999730e-01 -5.248810000000000420e-01 -2.014062000000000019e+00 1.311301000000000050e+00 -2.234001000000000126e+00 -1.755190000000000083e-01 4.444600000000000217e-01 -2.405770000000000131e-01 1.486944999999999961e+00 1.466275999999999913e+00 6.784400000000000430e-01 6.963009999999999478e-01 -1.347820999999999936e+00 -1.225443999999999978e+00 3.417899999999999827e-01 1.120185999999999904e+00 6.554219999999999491e-01 1.615264999999999951e+00 -1.195956999999999937e+00 1.831540000000000112e-01 -1.158843000000000067e+00 -4.721999999999999809e-02 1.531207999999999902e+00 -8.418699999999999795e-02 1.479155999999999915e+00 8.548930000000000140e-01 -8.006609999999999561e-01 5.776740000000000208e-01 8.332060000000000022e-01 7.109410000000000451e-01 -6.424819999999999975e-01 2.121089999999999920e-01 7.129180000000000517e-01 2.224765000000000104e+00 1.302041000000000004e+00 6.537410000000000165e-01 8.903349999999999875e-01 7.758650000000000269e-01 -2.475544000000000189e+00 -7.031319999999999792e-01 -7.022140000000000049e-01 3.945839999999999903e-01 3.499800000000000133e-02 -1.135453999999999963e+00 3.206100000000000061e-01 -4.720210000000000239e-01 3.495869999999999811e-01 3.825763999999999943e+00 -8.646299999999999819e-02 -4.184880000000000266e-01 -1.769430000000000058e+00 -6.342499999999999527e-02 1.270070999999999950e+00 -4.625679999999999792e-01 -5.478629999999999889e-01 -1.621529999999999916e+00 -7.728399999999999714e-01 -4.157910000000000217e-01 1.643531000000000075e+00 2.146980000000000111e+00 -1.898079999999999989e+00 6.541550000000000420e-01 1.216515000000000013e+00 -6.509890000000000398e-01 -3.284969999999999835e-01 -5.065479999999999983e-01 -3.353900000000000214e-01 1.794470000000000010e+00 -1.317757000000000067e+00 -2.001900000000000013e+00 1.889699999999999991e-01 -6.217470000000000496e-01 8.465599999999999792e-01 -8.700440000000000396e-01 1.945400000000000018e+00 1.800440000000000096e-01 1.421260000000000023e-01 -1.726399999999999935e+00 -6.447040000000000548e-01 -8.391899999999999360e-02 -1.242799999999999981e-02 -2.166284999999999794e+00 1.441749999999999976e-01 5.429119999999999502e-01 4.629210000000000269e-01 -5.918440000000000367e-01 -1.259616000000000069e+00 5.407300000000000439e-01 -9.772429999999999728e-01 1.172480000000000050e-01 1.731444999999999901e+00 -1.083544000000000063e+00 -3.714810000000000056e-01 -1.235238000000000058e+00 -1.596681999999999935e+00 1.992839999999999889e-01
7.527300000000000657e-02 -3.688239999999999852e-01 -4.777599999999999902e-02 -2.977049999999999974e-01 -2.517530000000000046e-01 -2.495449999999999890e-01 -3.127400000000000319e-02 -6.015819999999999501e-01 -2.021469999999999934e-01 -3.848000000000000032e-02 -7.528110000000000079e-01 -4.415399999999999880e-01 -3.368199999999999666e-02 -7.041960000000000441e-01 -7.013080000000000425e-01 -2.750319999999999987e-01 -1.647560000000000136e-01 1.270100000000000118e-01 -2.648280000000000078e-01 -5.605600000000000166e-02 -4.445200000000000262e-01 -2.911980000000000124e-01 -2.944439999999999835e-01 -3.820850000000000080e-01 -6.938900000000000623e-02 -3.371540000000000092e-01 -5.615130000000000399e-01 1.795889999999999986e-01 -1.013679999999999998e-01 -3.434169999999999723e-01 -1.490499999999999985e-02 -5.182799999999999629e-01 -8.193709999999999605e-01 -2.911739999999999884e-01 -4.309689999999999910e-01 -4.586089999999999889e-01 -8.500699999999999923e-02 -7.925899999999999612e-02 -8.040709999999999802e-01 -1.369370000000000032e-01 -1.031450000000000006e-01 -3.318539999999999823e-01 -2.056900000000000048e-02 -6.996700000000000141e-02 -1.888330000000000009e-01 4.381990000000000052e-01 1.005149999999999932e-01 4.788970000000000171e-01 3.748810000000000198e-01 -4.421999999999999716e-03 5.341000000000000261e-03 -2.676499999999999990e-01 -6.615900000000000114e-01 1.593539999999999957e-01 -4.446109999999999784e-01 -3.725040000000000018e-01 3.634040000000000048e-01 1.911950000000000038e-01 5.484139999999999571e-01 -3.806629999999999736e-01 4.828350000000000142e-01 8.233719999999999928e-01 7.701850000000000085e-01 5.139400000000000218e-02 3.149739999999999762e-01 7.217899999999999316e-02 3.202980000000000271e-01 6.065739999999999466e-01 1.166620000000000018e-01 5.171829999999999483e-01 1.072670000000000012e-01 6.159419999999999895e-01 2.323000000000000065e-02 7.709179999999999922e-01 9.226779999999999982e-01 -3.241370000000000084e-01 2.087040000000000006e-01 -4.423819999999999975e-01 2.250070000000000126e-01 -2.645120000000000249e-01 5.120419999999999972e-01 1.817000000000000039e-03 -3.008049999999999891e-01 3.674939999999999873e-01 -2.244170000000000054e-01 2.072229999999999905e-01 5.452900000000000108e-02 3.009399999999999922e-02 8.672980000000000134e-01 1.361861999999999906e+00 1.931400000000000131e-02 4.652549999999999741e-01 5.981819999999999915e-01 4.422399999999999942e-02 6.098949999999999649e-01 5.973289999999999988e-01 -7.056099999999999872e-02 3.335560000000000191e-01 1.598199999999999968e-02 2.869260000000000144e-01 -1.258060000000000012e-01 -7.230739999999999945e-01 -7.990300000000000180e-02 6.002429999999999710e-01 3.836379999999999790e-01