1.536319999999999908e+00 8.702999999999999625e-01 4.191599999999999770e-01 3.060859999999999914e+00 1.838160000000000016e+00 3.320990000000000109e+00 4.498680000000000234e+00 2.583779999999999966e+00 5.684160000000000323e+00 2.942169999999999952e+00 3.548350000000000115e+00 5.579800000000000315e-01 4.708739999999999704e+00 4.357980000000000409e+00 3.176180000000000003e+00 9.302000000000000546e-02 5.224820000000000242e+00 5.666360000000000063e+00 4.401060000000000194e+00 6.183320000000000149e+00 6.786699999999999955e-01 1.337609999999999966e+00 7.793520000000000003e+00 5.783120000000000260e+00 4.451740000000000030e+00 9.833800000000000319e-01 5.543500000000000094e-01 2.437799999999999967e-01 1.560380000000000100e+00 3.144509999999999916e+00 1.582319999999999949e+00 2.542720000000000091e+00 5.738550000000000040e+00 -6.818000000000000449e-02 3.481700000000000017e+00 6.708399999999999919e-01 1.437100000000000044e+00 4.429879999999999818e+00 3.162170000000000147e+00 3.073010000000000019e+00 5.208680000000000199e+00 5.669640000000000235e+00 1.426739999999999897e+00 6.201559999999999739e+00 8.504599999999999937e-01 2.857489999999999863e+00 7.141750000000000043e+00 3.273660000000000014e+00 -1.743460000000000010e+00 8.007490000000000663e+00 5.767839999999999634e+00 -2.924720000000000208e+00 1.047528999999999932e+01 7.628020000000000245e+00 2.747700000000000142e-01 8.613400000000000389e+00 2.497790000000000177e+00 1.439740000000000020e+00 9.570420000000000371e+00 5.010279999999999845e+00 -2.748000000000000095e-02 5.184520000000000017e+00 7.551750000000000185e+00 3.043979999999999908e+00 3.506549999999999834e+00 2.556610000000000049e+00 -1.421319999999999917e+00 4.440400000000000347e+00 5.086129999999999818e+00 1.364549999999999930e+00 7.798320000000000363e+00 7.624600000000000044e+00 4.413540000000000241e+00 6.285059999999999647e+00 2.459189999999999987e+00 -2.448799999999999866e-01 7.141779999999999795e+00 5.155929999999999680e+00 1.743009999999999948e+00 2.660730000000000040e+00 7.603609999999999758e+00 3.057620000000000005e+00 8.792690000000000339e+00 2.645140000000000047e+00 1.069200000000000012e-01 1.731950000000000101e+00 4.934820000000000206e+00 2.896399999999999864e+00 5.235360000000000014e+00 7.562770000000000437e+00 4.540999999999999898e-02 3.297130000000000116e+00 2.573700000000000099e+00 1.529539999999999900e+00 4.407449999999999868e+00 5.098270000000000302e+00 -1.483399999999999996e-01 5.305390000000000050e+00 1.823700000000000043e-01 1.376779999999999893e+00 6.234609999999999985e+00 2.595450000000000035e+00 2.969460000000000210e+00 7.157849999999999824e+00 5.134190000000000254e+00
1.586479999999999890e+00 7.027799999999999603e-01 6.477699999999999569e-01 3.158430000000000071e+00 1.887040000000000051e+00 3.215510000000000090e+00 4.618680000000000341e+00 2.596839999999999815e+00 5.745820000000000149e+00 3.036099999999999799e+00 3.673540000000000028e+00 5.866500000000000048e-01 4.744860000000000078e+00 4.402300000000000324e+00 3.332219999999999960e+00 -6.919999999999999762e-02 5.548160000000000203e+00 5.672329999999999650e+00 4.620409999999999684e+00 6.261289999999999800e+00 7.360499999999999821e-01 1.359699999999999909e+00 8.151229999999999976e+00 5.643139999999999823e+00 4.552050000000000374e+00 9.225299999999999612e-01 6.720899999999999652e-01 -1.429999999999999882e-01 1.678800000000000070e+00 3.115889999999999826e+00 1.360729999999999995e+00 2.647860000000000102e+00 5.747020000000000017e+00 -1.191900000000000043e-01 3.711440000000000072e+00 6.629899999999999682e-01 1.567420000000000035e+00 4.465510000000000090e+00 3.176989999999999981e+00 2.959890000000000132e+00 5.184450000000000003e+00 5.803779999999999717e+00 1.465109999999999912e+00 6.202049999999999841e+00 6.269099999999999673e-01 3.131629999999999914e+00 7.139479999999999826e+00 3.059750000000000192e+00 -1.661319999999999908e+00 7.833759999999999835e+00 5.538109999999999644e+00 4.493490000000000428e+00 2.781369999999999898e+00 7.556429999999999758e+00 3.348999999999999894e-02 8.779009999999999536e+00 2.559379999999999988e+00 3.055190000000000072e+00 2.048750000000000071e+00 5.038929999999999687e+00 -8.931999999999999662e-02 5.500770000000000159e+00 7.550379999999999647e+00 3.162319999999999798e+00 3.664719999999999978e+00 2.529349999999999987e+00 4.458999999999999631e+00 4.371179999999999843e+00 5.269529999999999603e+00 2.983449999999999935e+00 5.352529999999999788e+00 7.579999999999999932e-03 -1.567930000000000046e+00 6.214349999999999596e+00 2.430439999999999934e+00 -1.023700000000000027e-01 7.228329999999999700e+00 4.830630000000000202e+00 1.468750000000000000e+00 7.919249999999999901e+00 1.951999999999999916e-02 4.508539999999999992e+00 8.978599999999999914e-01 2.495509999999999895e+00 -1.745840000000000058e+00 9.693059999999999121e+00 5.060570000000000235e+00 4.508009999999999629e+00 2.646720000000000184e+00 7.969999999999999307e-02 -5.999000000000000166e-02 3.490099999999999980e+00 2.572410000000000085e+00 1.470529999999999893e+00 4.550419999999999909e+00 5.083879999999999733e+00 -1.562449999999999894e+00 8.066369999999999152e+00 7.441259999999999764e+00 1.622009999999999952e+00 6.255709999999999660e+00 2.600350000000000161e+00 2.881549999999999834e+00 7.049140000000000406e+00 4.989110000000000156e+00
1.517840000000000078e+00 9.101299999999999946e-01 7.056200000000000250e-01 2.951060000000000016e+00 1.949820000000000109e+00 3.339370000000000172e+00 4.312369999999999592e+00 2.673420000000000130e+00 5.600550000000000139e+00 3.092459999999999987e+00 3.607460000000000111e+00 4.217400000000000038e-01 4.508409999999999584e+00 4.485490000000000421e+00 2.917190000000000172e+00 -8.548000000000000043e-02 5.445100000000000051e+00 5.443260000000000431e+00 4.550040000000000084e+00 6.382530000000000037e+00 7.841900000000000537e-01 1.387170000000000014e+00 8.155879999999999797e+00 5.893830000000000346e+00 4.628099999999999881e+00 9.152299999999999880e-01 6.651799999999999935e-01 -4.551999999999999796e-02 1.735950000000000104e+00 3.242750000000000021e+00 1.338729999999999976e+00 2.859319999999999862e+00 5.600050000000000416e+00 1.152399999999999952e-01 3.676019999999999843e+00 6.946999999999999842e-01 1.617380000000000040e+00 4.633759999999999657e+00 2.996179999999999843e+00 3.090619999999999923e+00 5.401650000000000063e+00 5.643959999999999866e+00 1.382239999999999913e+00 6.298659999999999926e+00 7.110999999999999543e-01 2.880329999999999835e+00 7.213770000000000238e+00 3.353400000000000158e+00 -1.586589999999999945e+00 8.264989999999999171e+00 5.520120000000000360e+00 -1.448099999999999943e+00 8.050190000000000623e+00 1.950999999999999956e-02 1.687780000000000058e+00 9.990700000000000136e-01 2.600049999999999972e+00 1.265409999999999924e+00 9.898789999999999978e+00 5.124419999999999753e+00 8.820000000000000062e-02 5.352000000000000313e+00 7.440610000000000390e+00 3.006400000000000183e+00 3.575120000000000076e+00 2.347840000000000149e+00 4.432870000000000310e+00 4.470699999999999896e+00 4.882559999999999789e+00 2.933660000000000156e+00 5.276679999999999815e+00 1.005999999999999950e-01 -1.525490000000000013e+00 6.356819999999999915e+00 2.697010000000000129e+00 -1.889800000000000091e-01 7.159709999999999575e+00 5.088059999999999583e+00 1.574680000000000080e+00 8.076689999999999259e+00 7.192999999999999394e-02 2.907820000000000071e+00 8.746019999999999683e+00 2.501489999999999991e+00 -9.624000000000000610e-02 2.042679999999999829e+00 4.913129999999999775e+00 3.048610000000000042e+00 5.247519999999999740e+00 7.512780000000000236e+00 -3.146000000000000185e-02 3.381209999999999827e+00 2.528989999999999849e+00 1.542620000000000102e+00 4.648069999999999702e+00 4.938489999999999824e+00 -1.515009999999999968e+00 8.126010000000000844e+00 7.530590000000000117e+00 1.411929999999999907e+00 6.406979999999999897e+00 2.545799999999999841e+00 2.960570000000000146e+00 7.266589999999999883e+00 5.043090000000000295e+00
1.484459999999999891e+00 9.052200000000000246e-01 5.818600000000000438e-01 2.924630000000000063e+00 1.857460000000000111e+00 3.112540000000000084e+00 4.371129999999999960e+00 2.654920000000000169e+00 5.710390000000000299e+00 2.900009999999999977e+00 3.697760000000000158e+00 4.804300000000000237e-01 4.480640000000000178e+00 4.607949999999999768e+00 3.124460000000000015e+00 -6.622999999999999721e-02 5.442980000000000373e+00 5.638200000000000323e+00 4.559020000000000294e+00 6.408150000000000013e+00 7.777100000000000124e-01 1.368670000000000053e+00 8.181359999999999744e+00 5.763069999999999915e+00 4.482660000000000089e+00 9.312899999999999512e-01 6.882399999999999629e-01 8.827999999999999736e-02 1.856889999999999930e+00 3.292240000000000055e+00 1.461310000000000109e+00 2.649680000000000035e+00 5.793190000000000062e+00 6.965000000000000357e-02 3.652540000000000120e+00 7.880500000000000282e-01 1.578410000000000091e+00 4.542659999999999698e+00 3.238309999999999800e+00 3.056229999999999780e+00 5.684969999999999857e+00 5.918590000000000018e+00 1.606640000000000068e+00 6.307220000000000049e+00 5.486299999999999510e-01 2.878099999999999881e+00 7.179509999999999614e+00 3.055680000000000174e+00 -1.612880000000000091e+00 8.058490000000000819e+00 5.926499999999999879e+00 4.331039999999999779e+00 2.855659999999999865e+00 7.494360000000000355e+00 7.086000000000000631e-02 8.863360000000000127e+00 2.529850000000000154e+00 1.490820000000000034e+00 9.850450000000000372e+00 4.972030000000000172e+00 -1.251500000000000112e-01 5.475590000000000401e+00 7.558019999999999960e+00 3.028570000000000206e+00 3.553300000000000125e+00 2.483200000000000074e+00 -1.541670000000000096e+00 4.567669999999999675e+00 5.186410000000000409e+00 1.668220000000000036e+00 8.225690000000000168e+00 7.587670000000000137e+00 4.358660000000000423e+00 6.401980000000000004e+00 2.643269999999999786e+00 -3.905000000000000138e-02 7.121199999999999974e+00 5.071209999999999773e+00 -3.563000000000000195e-02 1.078065999999999924e+01 7.600719999999999921e+00 3.116880000000000095e+00 8.932600000000000762e+00 2.600449999999999928e+00 -1.452609999999999957e+00 9.864259999999999806e+00 5.084010000000000140e+00 4.450409999999999755e+00 2.767910000000000093e+00 1.020500000000000018e-01 -9.899999999999999946e-04 3.641799999999999926e+00 2.640769999999999840e+00 1.559700000000000086e+00 4.527599999999999625e+00 5.376859999999999751e+00 2.433299999999999907e-01 5.342290000000000205e+00 6.694999999999999563e-02 1.376710000000000100e+00 6.123079999999999856e+00 2.345470000000000166e+00 3.037580000000000169e+00 7.297240000000000393e+00 5.017809999999999881e+00
1.350360000000000005e+00 8.052200000000000468e-01 4.081699999999999773e-01 2.887900000000000134e+00 1.905030000000000001e+00 3.039600000000000080e+00 4.391580000000000261e+00 2.668229999999999880e+00 5.634330000000000283e+00 3.084560000000000191e+00 3.527639999999999887e+00 6.828600000000000225e-01 -1.181769999999999987e+00 4.441609999999999836e+00 3.049529999999999852e+00 1.498500000000000110e-01 5.606320000000000192e+00 5.504570000000000185e+00 4.320520000000000138e+00 6.229429999999999801e+00 8.024200000000000221e-01 1.557770000000000099e+00 8.082620000000000360e+00 5.613400000000000389e+00 4.437680000000000291e+00 8.179999999999999494e-01 6.983099999999999863e-01 4.163000000000000034e-02 1.881669999999999954e+00 3.207180000000000142e+00 1.466930000000000067e+00 2.653030000000000221e+00 5.681729999999999947e+00 5.235000000000000070e-02 3.554800000000000182e+00 5.945599999999999774e-01 1.675589999999999913e+00 4.638860000000000205e+00 3.244670000000000165e+00 3.159139999999999837e+00 5.279880000000000351e+00 5.826019999999999754e+00 1.502639999999999976e+00 6.097339999999999982e+00 7.293399999999999883e-01 3.285730000000000040e+00 7.319069999999999965e+00 3.383179999999999854e+00 -1.342600000000000016e+00 8.067949999999999733e+00 5.855089999999999684e+00 2.889920000000000044e+00 1.073700000000000010e+01 7.497539999999999871e+00 1.593900000000000095e+00 9.146100000000000341e-01 2.306770000000000209e+00 1.448380000000000001e+00 9.777290000000000703e+00 4.861489999999999867e+00 1.000800000000000023e-01 5.415020000000000167e+00 7.481989999999999696e+00 3.025589999999999780e+00 3.642479999999999940e+00 2.494949999999999779e+00 -1.383380000000000054e+00 4.571649999999999991e+00 4.974029999999999951e+00 1.392120000000000024e+00 7.970180000000000042e+00 7.543429999999999858e+00 -1.344119999999999981e+00 6.506789999999999630e+00 2.481380000000000141e+00 -2.478999999999999954e-02 7.291660000000000252e+00 4.884890000000000398e+00 1.448520000000000030e+00 7.881359999999999921e+00 5.317999999999999811e-02 4.633490000000000109e+00 1.041109999999999980e+00 2.544140000000000068e+00 -1.126000000000000056e-01 1.877459999999999907e+00 5.116769999999999818e+00 4.598810000000000286e+00 2.424739999999999895e+00 1.243800000000000044e-01 2.931199999999999917e-01 3.714189999999999880e+00 2.474629999999999885e+00 1.638679999999999914e+00 4.516029999999999767e+00 5.166850000000000165e+00 -1.798800000000000121e-01 5.356760000000000410e+00 7.782000000000000028e-02 1.522939999999999960e+00 6.419669999999999987e+00 2.432490000000000041e+00 3.035769999999999857e+00 7.253309999999999924e+00 5.328330000000000233e+00
1.483500000000000041e+00 1.083630000000000093e+00 4.670500000000000207e-01 3.179159999999999986e+00 1.650300000000000100e+00 3.063649999999999984e+00 4.544450000000000323e+00 2.590059999999999807e+00 5.713870000000000005e+00 3.088810000000000056e+00 3.630599999999999827e+00 7.395599999999999952e-01 4.780910000000000437e+00 4.689560000000000173e+00 3.275349999999999984e+00 1.059000000000000045e-02 5.366859999999999964e+00 5.699279999999999902e+00 4.633709999999999773e+00 6.308600000000000207e+00 6.479099999999999859e-01 1.292210000000000081e+00 7.976630000000000109e+00 5.710880000000000400e+00 4.877919999999999590e+00 8.936800000000000299e-01 6.531799999999999828e-01 -1.831399999999999972e-01 1.904269999999999907e+00 3.023219999999999796e+00 1.493710000000000093e+00 2.602640000000000065e+00 5.470040000000000013e+00 -9.335000000000000242e-02 3.791110000000000202e+00 6.201900000000000190e-01 1.597830000000000084e+00 4.603839999999999932e+00 3.029710000000000125e+00 3.140249999999999986e+00 5.279020000000000046e+00 5.884759999999999991e+00 1.461580000000000101e+00 6.377489999999999881e+00 3.859500000000000153e-01 3.160280000000000200e+00 7.256199999999999761e+00 3.207260000000000222e+00 -1.712539999999999951e+00 8.086880000000000734e+00 5.715290000000000425e+00 -1.724900000000000100e+00 8.104129999999999612e+00 4.179999999999999688e-02 1.538999999999999924e+00 1.089010000000000034e+00 2.364399999999999835e+00 1.250159999999999938e+00 9.714570000000000149e+00 5.014470000000000205e+00 1.445470000000000033e+00 2.947239999999999860e+00 1.249099999999999933e-01 3.323269999999999946e+00 3.694440000000000168e+00 2.703359999999999985e+00 -1.493030000000000079e+00 4.530870000000000175e+00 5.358240000000000336e+00 3.102970000000000006e+00 5.364029999999999632e+00 5.657999999999999835e-02 4.573669999999999902e+00 6.288520000000000110e+00 2.632849999999999913e+00 -2.787799999999999723e-01 7.124959999999999738e+00 5.074690000000000367e+00 1.617909999999999959e+00 2.759419999999999984e+00 7.352479999999999905e+00 3.089370000000000172e+00 8.942259999999999209e+00 2.440580000000000194e+00 -2.008560000000000123e+00 9.776160000000000849e+00 4.841520000000000046e+00 4.683119999999999727e+00 2.851389999999999869e+00 7.235999999999999377e-02 5.740000000000000310e-03 3.882080000000000197e+00 2.659879999999999800e+00 1.574799999999999978e+00 4.353900000000000325e+00 4.930500000000000327e+00 -1.721870000000000012e+00 8.058569999999999567e+00 7.554289999999999949e+00 1.757830000000000004e+00 6.481010000000000382e+00 2.323069999999999968e+00 2.961780000000000079e+00 6.995199999999999640e+00 5.175769999999999982e+00
1.498269999999999991e+00 9.143000000000000016e-01 5.764200000000000434e-01 2.833099999999999952e+00 1.805839999999999890e+00 3.082230000000000025e+00 4.456940000000000346e+00 2.653840000000000199e+00 5.467690000000000161e+00 3.078549999999999898e+00 3.510940000000000172e+00 6.142800000000000482e-01 4.452510000000000190e+00 4.467120000000000424e+00 3.019330000000000069e+00 -2.820799999999999974e-01 5.375070000000000014e+00 5.503499999999999837e+00 4.427270000000000039e+00 6.242379999999999818e+00 4.999799999999999800e-01 1.096710000000000074e+00 8.028980000000000672e+00 5.557529999999999859e+00 4.566950000000000287e+00 8.813400000000000123e-01 7.483199999999999852e-01 -1.192899999999999933e-01 1.642789999999999973e+00 3.207170000000000076e+00 1.373709999999999987e+00 2.716330000000000133e+00 5.618109999999999715e+00 1.336999999999999994e-02 3.482600000000000140e+00 6.114000000000000545e-01 1.355220000000000091e+00 4.513819999999999943e+00 3.037450000000000205e+00 2.754010000000000069e+00 5.329439999999999955e+00 5.677669999999999995e+00 1.392479999999999940e+00 6.197440000000000282e+00 6.446600000000000108e-01 2.996570000000000178e+00 7.140600000000000058e+00 3.049310000000000187e+00 -1.847499999999999920e+00 7.901810000000000223e+00 5.666360000000000063e+00 6.075330000000000119e+00 5.640000000000000048e-03 8.750000000000000833e-03 1.284569999999999990e+00 9.871499999999999719e-01 2.374989999999999934e+00 1.094589999999999952e+00 9.674929999999999808e+00 4.888349999999999973e+00 1.521419999999999995e+00 2.587320000000000064e+00 4.109999999999999765e-02 2.894870000000000054e+00 3.453399999999999803e+00 2.432279999999999998e+00 4.276670000000000194e+00 4.463379999999999903e+00 4.806009999999999671e+00 1.047719999999999985e+00 7.984429999999999694e+00 7.396969999999999601e+00 -1.602219999999999978e+00 6.239580000000000126e+00 2.420380000000000198e+00 -3.582899999999999974e-01 7.093210000000000015e+00 4.861570000000000391e+00 3.145970000000000155e+00 1.004700000000000037e-01 1.960999999999999896e-02 4.399709999999999788e+00 9.246499999999999719e-01 2.505119999999999791e+00 -1.872190000000000021e+00 9.687720000000000553e+00 5.041570000000000107e+00 4.629999999999999893e+00 2.666640000000000121e+00 5.358999999999999875e-02 -4.621000000000000107e-02 3.431319999999999926e+00 2.555779999999999941e+00 1.328480000000000105e+00 4.532689999999999664e+00 4.957810000000000272e+00 -2.242000000000000104e-01 5.145050000000000345e+00 1.276899999999999979e-01 1.398919999999999941e+00 6.207810000000000272e+00 2.513360000000000039e+00 2.793839999999999879e+00 7.020590000000000330e+00 4.834080000000000155e+00
1.717850000000000099e+00 9.598799999999999555e-01 6.338099999999999845e-01 3.220740000000000158e+00 1.706919999999999993e+00 3.201890000000000125e+00 4.704130000000000145e+00 2.776260000000000172e+00 5.695520000000000138e+00 3.363879999999999981e+00 3.471900000000000208e+00 5.206100000000000172e-01 4.769779999999999909e+00 4.280640000000000001e+00 3.058089999999999975e+00 -6.826999999999999735e-02 5.374489999999999768e+00 5.666059999999999874e+00 4.655070000000000263e+00 6.092190000000000438e+00 4.647499999999999964e-01 1.375170000000000003e+00 8.051030000000000797e+00 5.534939999999999749e+00 4.835239999999999760e+00 9.667200000000000237e-01 7.726300000000000390e-01 -2.659999999999999865e-02 1.564799999999999969e+00 3.310680000000000067e+00 1.414179999999999993e+00 2.647679999999999811e+00 5.575319999999999609e+00 5.220000000000000334e-02 3.269179999999999975e+00 7.441200000000000037e-01 1.552189999999999959e+00 4.358810000000000073e+00 3.073529999999999873e+00 3.075349999999999806e+00 5.308290000000000397e+00 5.541750000000000398e+00 1.617450000000000054e+00 6.104969999999999786e+00 5.542799999999999949e-01 3.278399999999999981e+00 6.898520000000000429e+00 3.209280000000000133e+00 -1.818459999999999965e+00 7.811679999999999957e+00 5.811069999999999958e+00 3.800000000000000209e-04 6.333999999999999353e-02 7.030000000000000138e-02 1.737449999999999939e+00 9.601699999999999680e-01 2.512710000000000221e+00 3.083849999999999980e+00 2.023979999999999890e+00 5.018760000000000332e+00 1.634020000000000028e+00 2.633799999999999919e+00 2.380299999999999916e-01 3.350169999999999870e+00 3.529570000000000096e+00 2.444659999999999833e+00 -1.579930000000000057e+00 4.571089999999999876e+00 5.143349999999999866e+00 1.496969999999999912e+00 7.990020000000000344e+00 7.401349999999999874e+00 -1.485300000000000065e+00 6.130869999999999820e+00 2.305489999999999817e+00 -1.451600000000000112e-01 7.169959999999999667e+00 5.023450000000000415e+00 1.625369999999999981e+00 2.851560000000000095e+00 7.440800000000000303e+00 3.184009999999999785e+00 8.587839999999999918e+00 2.591190000000000104e+00 -1.663219999999999921e+00 9.554240000000000066e+00 5.172170000000000378e+00 3.229919999999999902e+00 5.200199999999999712e+00 7.414320000000000022e+00 -5.616000000000000159e-02 3.366680000000000117e+00 2.645309999999999828e+00 1.428889999999999993e+00 4.479709999999999859e+00 5.117270000000000429e+00 6.340999999999999415e-02 5.197580000000000311e+00 5.063000000000000139e-02 1.487109999999999932e+00 5.966899999999999871e+00 2.554660000000000153e+00 3.106899999999999995e+00 7.099070000000000213e+00 4.971720000000000361e+00
1.534869999999999957e+00 1.010459999999999914e+00 4.535899999999999932e-01 3.008410000000000029e+00 1.746459999999999901e+00 3.236180000000000057e+00 4.734969999999999679e+00 2.437940000000000218e+00 5.513340000000000352e+00 3.146150000000000002e+00 3.361800000000000122e+00 6.944700000000000317e-01 4.404880000000000351e+00 4.360179999999999723e+00 3.111569999999999947e+00 2.858000000000000124e-02 5.275739999999999874e+00 5.695649999999999658e+00 4.773749999999999716e+00 6.313209999999999766e+00 7.128100000000000547e-01 1.823839999999999906e+00 7.942590000000000039e+00 5.686799999999999855e+00 4.503940000000000055e+00 1.000220000000000109e+00 5.004600000000000160e-01 9.723999999999999311e-02 1.766270000000000007e+00 3.011420000000000208e+00 1.502429999999999932e+00 2.717880000000000074e+00 5.523209999999999731e+00 -2.908000000000000168e-02 3.606930000000000192e+00 6.174300000000000344e-01 1.537349999999999994e+00 4.412040000000000184e+00 3.065479999999999983e+00 3.083530000000000104e+00 5.342839999999999812e+00 5.519490000000000229e+00 1.535099999999999909e+00 6.146580000000000155e+00 5.802199999999999580e-01 2.993320000000000203e+00 7.143609999999999793e+00 2.964100000000000179e+00 -1.263479999999999936e+00 7.971009999999999707e+00 5.677310000000000301e+00 3.131170000000000009e+00 1.059003000000000050e+01 7.342389999999999972e+00 1.588799999999999990e+00 9.264599999999999502e-01 2.375919999999999810e+00 1.710129999999999928e+00 9.717959999999999710e+00 5.173650000000000304e+00 1.548249999999999904e+00 2.787009999999999987e+00 4.846999999999999920e-02 2.987789999999999946e+00 3.427700000000000191e+00 2.458260000000000112e+00 4.621590000000000309e+00 4.304050000000000153e+00 4.948610000000000397e+00 3.155720000000000081e+00 5.141930000000000334e+00 1.055799999999999933e-01 4.547279999999999767e+00 6.376599999999999824e+00 2.411729999999999929e+00 1.946599999999999997e-01 7.067520000000000024e+00 4.970329999999999693e+00 1.536350000000000104e+00 2.800330000000000208e+00 7.378599999999999604e+00 4.657840000000000202e+00 9.334700000000000220e-01 2.480249999999999844e+00 -1.168700000000000072e+00 9.560359999999999303e+00 4.856200000000000294e+00 3.157379999999999853e+00 5.471599999999999575e+00 7.312280000000000335e+00 -2.793999999999999956e-02 3.418029999999999902e+00 2.609770000000000145e+00 1.563409999999999966e+00 4.526609999999999800e+00 5.008810000000000429e+00 -4.338000000000000189e-02 5.251590000000000202e+00 8.798000000000000265e-02 1.385709999999999997e+00 6.288149999999999906e+00 2.369159999999999933e+00 3.268209999999999837e+00 7.155700000000000394e+00 4.779410000000000380e+00
1.488320000000000087e+00 8.265000000000000124e-01 7.528399999999999537e-01 2.825320000000000054e+00 1.704879999999999951e+00 2.962299999999999933e+00 4.522120000000000140e+00 2.693820000000000103e+00 5.524329999999999963e+00 2.970839999999999925e+00 3.687320000000000153e+00 5.595599999999999463e-01 4.532770000000000188e+00 4.339229999999999698e+00 3.193010000000000126e+00 -6.575000000000000289e-02 5.197289999999999743e+00 5.691230000000000011e+00 4.658310000000000173e+00 6.143340000000000245e+00 6.115699999999999470e-01 1.635440000000000005e+00 7.905599999999999739e+00 5.620860000000000412e+00 4.666619999999999990e+00 1.004490000000000105e+00 6.410900000000000487e-01 -1.451699999999999935e-01 1.711179999999999923e+00 3.208549999999999791e+00 1.401000000000000023e+00 2.739160000000000039e+00 5.736119999999999663e+00 2.390000000000000197e-03 3.683320000000000149e+00 6.770399999999999752e-01 1.541770000000000085e+00 4.409690000000000332e+00 3.212130000000000152e+00 3.030899999999999928e+00 5.391269999999999563e+00 5.480249999999999844e+00 1.600030000000000063e+00 6.233640000000000292e+00 7.102000000000000535e-01 2.894320000000000004e+00 7.000580000000000247e+00 3.166749999999999954e+00 -1.507740000000000080e+00 7.851469999999999949e+00 5.531780000000000364e+00 -2.833520000000000039e+00 1.045519999999999960e+01 7.400240000000000151e+00 -7.840999999999999359e-02 8.456649999999999778e+00 2.537370000000000125e+00 1.512289999999999912e+00 9.607079999999999842e+00 4.962049999999999628e+00 1.511919999999999931e+00 2.749870000000000037e+00 1.160999999999999949e-01 3.037490000000000023e+00 3.479849999999999888e+00 2.594339999999999868e+00 4.416830000000000034e+00 4.357109999999999594e+00 5.167650000000000077e+00 3.137710000000000221e+00 5.338630000000000209e+00 7.320000000000000118e-03 4.480500000000000149e+00 6.191430000000000433e+00 2.781039999999999957e+00 2.426300000000000123e-01 6.851899999999999658e+00 4.879749999999999588e+00 3.102599999999999802e+00 7.191999999999999782e-02 2.563000000000000000e-02 4.454030000000000378e+00 9.201200000000000490e-01 2.449939999999999785e+00 -1.430290000000000061e+00 9.626939999999999387e+00 5.004019999999999690e+00 4.491480000000000139e+00 2.729400000000000048e+00 5.505000000000000171e-02 1.942099999999999937e-01 3.569690000000000030e+00 2.550539999999999807e+00 1.391119999999999912e+00 4.422380000000000422e+00 5.072199999999999598e+00 -1.467349999999999932e+00 7.908750000000000391e+00 7.455099999999999838e+00 1.551350000000000007e+00 6.093379999999999797e+00 2.517370000000000108e+00 3.144629999999999814e+00 7.009780000000000122e+00 5.063430000000000319e+00
1.339369999999999949e+00 9.439400000000000013e-01 4.418599999999999750e-01 3.072579999999999867e+00 1.931019999999999959e+00 3.007410000000000139e+00 4.556049999999999933e+00 2.646110000000000184e+00 5.647890000000000299e+00 3.049609999999999932e+00 3.826690000000000147e+00 3.883099999999999885e-01 4.506910000000000416e+00 4.717050000000000409e+00 3.169119999999999937e+00 -1.630600000000000105e-01 5.489289999999999559e+00 5.623590000000000089e+00 -1.393559999999999910e+00 6.511059999999999626e+00 6.926200000000000134e-01 1.716050000000000075e+00 8.454499999999999460e+00 5.619170000000000442e+00 4.551999999999999602e+00 8.272699999999999498e-01 7.100100000000000300e-01 -7.499999999999999722e-02 1.719770000000000021e+00 3.289330000000000087e+00 1.438800000000000079e+00 2.654529999999999834e+00 5.676969999999999850e+00 -2.765000000000000097e-02 3.442089999999999872e+00 8.382399999999999851e-01 1.399480000000000057e+00 4.560340000000000060e+00 3.170690000000000008e+00 2.814039999999999875e+00 5.590329999999999799e+00 5.659159999999999968e+00 1.696129999999999916e+00 6.379889999999999617e+00 6.523799999999999599e-01 3.070269999999999833e+00 7.265789999999999971e+00 3.089150000000000063e+00 -1.479819999999999913e+00 8.110319999999999752e+00 5.774969999999999715e+00 2.707840000000000025e+00 1.104132000000000069e+01 7.476560000000000095e+00 1.526000000000000023e+00 1.412740000000000107e+00 2.129649999999999821e+00 2.983429999999999804e+00 1.945289999999999964e+00 4.940629999999999633e+00 -9.057999999999999385e-02 5.565610000000000390e+00 7.386849999999999916e+00 3.029479999999999951e+00 3.919059999999999988e+00 2.617109999999999825e+00 4.396939999999999849e+00 4.625700000000000145e+00 5.153839999999999755e+00 1.512659999999999894e+00 8.459979999999999833e+00 7.484040000000000248e+00 -1.562289999999999957e+00 6.535969999999999835e+00 2.536420000000000119e+00 2.076199999999999990e-01 7.392260000000000275e+00 5.111620000000000275e+00 -3.511500000000000177e-01 1.098564999999999969e+01 7.436569999999999681e+00 2.968989999999999796e+00 8.967919999999999447e+00 2.545659999999999812e+00 -1.777330000000000076e+00 9.889799999999999258e+00 5.090250000000000163e+00 4.654250000000000220e+00 2.775929999999999787e+00 7.832999999999999685e-02 -1.772400000000000087e-01 3.563619999999999788e+00 2.762399999999999967e+00 1.385680000000000023e+00 4.638069999999999915e+00 4.967550000000000132e+00 4.787000000000000283e-02 5.374740000000000073e+00 1.164700000000000041e-01 1.475700000000000012e+00 6.578409999999999869e+00 2.342060000000000031e+00 3.109539999999999971e+00 7.328710000000000058e+00 4.949989999999999668e+00