6.219678850000000203e+00 0.000000000000000000e+00 0.000000000000000000e+00 -3.077892568000000217e+00 5.394073613999999850e+00 0.000000000000000000e+00 -2.104347739999999911e-01 1.504613559999999906e-01 1.028977511299999925e+01
6.323144525000000016e+00 0.000000000000000000e+00 0.000000000000000000e+00 -3.318019704000000125e+00 5.294413700999999861e+00 0.000000000000000000e+00 -9.286034800000000367e-01 4.610061329999999846e-01 1.016131686199999962e+01
6.285957945999999907e+00 0.000000000000000000e+00 0.000000000000000000e+00 -3.210583927000000060e+00 5.475833201999999567e+00 0.000000000000000000e+00 -9.060158499999999837e-02 -6.026616199999999812e-02 1.028490467099999961e+01
6.096101781999999858e+00 0.000000000000000000e+00 0.000000000000000000e+00 -3.063271523000000052e+00 5.426584685999999991e+00 0.000000000000000000e+00 -1.772186797000000036e+00 9.051749759999999645e-01 9.982562265000000323e+00
6.179244248999999911e+00 0.000000000000000000e+00 0.000000000000000000e+00 -3.152429757999999804e+00 5.444484060999999819e+00 0.000000000000000000e+00 -4.455429600000000018e-02 4.048440930000000160e-01 1.028456886700000084e+01
6.202984533999999606e+00 0.000000000000000000e+00 0.000000000000000000e+00 -3.094260828999999990e+00 5.316494164999999938e+00 0.000000000000000000e+00 4.410235730000000021e-01 -2.865664090000000219e-01 1.051190466100000087e+01
6.216848116000000424e+00 0.000000000000000000e+00 0.000000000000000000e+00 -3.220240513999999887e+00 5.495978491999999882e+00 0.000000000000000000e+00 -2.421879180000000020e-01 2.165511989999999998e-01 1.019721052899999947e+01
6.244533667999999871e+00 0.000000000000000000e+00 0.000000000000000000e+00 -3.137400661000000035e+00 5.377856103000000054e+00 0.000000000000000000e+00 -2.342719000000000051e-01 -2.868906599999999918e-02 1.040095168600000086e+01
6.252219896999999804e+00 0.000000000000000000e+00 0.000000000000000000e+00 -3.139264831000000200e+00 5.379622535000000205e+00 0.000000000000000000e+00 -1.947078580000000114e-01 1.955666090000000024e-01 1.030131397499999935e+01
6.259996497000000382e+00 0.000000000000000000e+00 0.000000000000000000e+00 -3.092408697000000206e+00 5.396181024999999742e+00 0.000000000000000000e+00 -5.290374800000000044e-02 2.957730199999999976e-02 1.084176842399999963e+01
6.217112762000000181e+00 0.000000000000000000e+00 0.000000000000000000e+00 -3.156485480000000177e+00 5.361310715000000116e+00 0.000000000000000000e+00 3.320701899999999734e-02 8.780374999999999985e-02 1.034677571799999996e+01
6.282701725999999987e+00 0.000000000000000000e+00 0.000000000000000000e+00 -3.098410041000000170e+00 5.338658581999999875e+00 0.000000000000000000e+00 -6.687820999999999350e-02 1.634194760000000080e-01 1.027381113300000059e+01
6.178886590000000290e+00 0.000000000000000000e+00 0.000000000000000000e+00 -3.071352678999999863e+00 5.342692040000000198e+00 0.000000000000000000e+00 1.838651169999999946e-01 -3.624095130000000164e-01 1.039029922499999969e+01
6.208307152999999801e+00 0.000000000000000000e+00 0.000000000000000000e+00 -3.071679293999999949e+00 5.429860264000000214e+00 0.000000000000000000e+00 1.151668889999999945e-01 -4.733540199999999865e-02 1.030303284899999916e+01
6.169198155000000128e+00 0.000000000000000000e+00 0.000000000000000000e+00 -3.263305123999999946e+00 5.440390113000000305e+00 0.000000000000000000e+00 1.258017459999999921e-01 3.499850190000000083e-01 1.024386154599999976e+01
6.216320690999999954e+00 0.000000000000000000e+00 0.000000000000000000e+00 -3.099918013999999999e+00 5.332091088000000312e+00 0.000000000000000000e+00 -1.670467200000000096e-01 8.731315200000000498e-02 1.034765131600000032e+01
6.158426266000000204e+00 0.000000000000000000e+00 0.000000000000000000e+00 -3.087274615000000111e+00 5.424475863999999703e+00 0.000000000000000000e+00 5.843390000000000389e-03 3.128797099999999776e-02 1.022848300599999938e+01
6.219972442999999629e+00 0.000000000000000000e+00 0.000000000000000000e+00 -3.217544209000000155e+00 5.429954505999999625e+00 0.000000000000000000e+00 -1.018555510000000025e-01 3.778417709999999929e-01 1.032429274399999919e+01
6.229106033999999958e+00 0.000000000000000000e+00 0.000000000000000000e+00 -3.155266553000000140e+00 5.371849030999999997e+00 0.000000000000000000e+00 -3.085412200000000119e-02 -5.722808599999999746e-02 1.031069781399999918e+01
6.208420828999999586e+00 0.000000000000000000e+00 0.000000000000000000e+00 -3.096049107999999883e+00 5.416730150000000243e+00 0.000000000000000000e+00 1.983392800000000067e-02 3.385944329999999725e-01 1.017638728800000081e+01
6.439860805000000354e+00 0.000000000000000000e+00 0.000000000000000000e+00 -3.045515604999999848e+00 5.415708006000000019e+00 0.000000000000000000e+00 -1.186825400000000030e-01 -5.067397959999999646e-01 1.051476570600000038e+01
6.219134816999999593e+00 0.000000000000000000e+00 0.000000000000000000e+00 -3.113705053999999972e+00 5.411670939000000402e+00 0.000000000000000000e+00 -2.133922679999999961e-01 1.151768620000000048e-01 1.030514919400000018e+01
6.179645414000000336e+00 0.000000000000000000e+00 0.000000000000000000e+00 -3.104134446000000214e+00 5.341870750000000001e+00 0.000000000000000000e+00 -2.633668120000000057e-01 2.327174800000000043e-01 1.002776371300000058e+01
6.203492632999999756e+00 0.000000000000000000e+00 0.000000000000000000e+00 -3.166446264999999816e+00 5.321853076000000016e+00 0.000000000000000000e+00 -2.071020169999999994e-01 2.791157160000000137e-01 1.012584997499999950e+01
6.279956467999999958e+00 0.000000000000000000e+00 0.000000000000000000e+00 -3.156992300999999834e+00 5.312275472999999693e+00 0.000000000000000000e+00 3.343174499999999882e-02 -2.655972999999999841e-03 1.014617652999999997e+01
6.237968301999999632e+00 0.000000000000000000e+00 0.000000000000000000e+00 -3.060209997999999931e+00 5.397542281999999858e+00 0.000000000000000000e+00 -2.651184540000000034e-01 -5.844449300000000014e-02 1.031822350300000046e+01
6.242405612999999853e+00 0.000000000000000000e+00 0.000000000000000000e+00 -3.148835116999999961e+00 5.399547541999999645e+00 0.000000000000000000e+00 1.098421809999999971e-01 -7.506843100000000490e-02 1.063838932700000051e+01
6.252333660999999765e+00 0.000000000000000000e+00 0.000000000000000000e+00 -3.126020438999999929e+00 5.377652042000000243e+00 0.000000000000000000e+00 -1.361181860000000021e-01 2.460279260000000079e-01 1.024935862699999944e+01
6.202327298000000155e+00 0.000000000000000000e+00 0.000000000000000000e+00 -3.099804332999999801e+00 5.328570445000000433e+00 0.000000000000000000e+00 7.592490300000000192e-02 -1.547169100000000130e-01 9.762181873999999482e+00
6.181812503999999819e+00 0.000000000000000000e+00 0.000000000000000000e+00 -3.097226834000000206e+00 5.398655529000000008e+00 0.000000000000000000e+00 -2.135509699999999997e-02 1.487901799999999941e-01 1.036248480000000072e+01
6.206839524000000274e+00 0.000000000000000000e+00 0.000000000000000000e+00 -3.078714063000000056e+00 5.428450745000000133e+00 0.000000000000000000e+00 -5.604168699999999975e-02 2.406693149999999948e-01 1.016548257800000066e+01
6.262696827000000077e+00 0.000000000000000000e+00 0.000000000000000000e+00 -3.207188627999999930e+00 5.338179819999999687e+00 0.000000000000000000e+00 -1.222896660000000052e-01 -5.034670209999999591e-01 1.037419745599999921e+01
6.161536667000000023e+00 0.000000000000000000e+00 0.000000000000000000e+00 -3.090386352999999975e+00 5.354954217999999599e+00 0.000000000000000000e+00 -8.501652799999999399e-02 -1.585061200000000003e-02 1.030467630499999920e+01
6.263131150999999619e+00 0.000000000000000000e+00 0.000000000000000000e+00 -3.188674252000000209e+00 5.288202802999999896e+00 0.000000000000000000e+00 -1.082783120000000016e-01 -5.255606099999999836e-01 1.043196789699999982e+01
6.221104216999999714e+00 0.000000000000000000e+00 0.000000000000000000e+00 -3.180844131000000186e+00 5.347215972999999956e+00 0.000000000000000000e+00 -5.966770300000000249e-02 2.629934199999999986e-02 1.034040245199999930e+01
6.245115740000000137e+00 0.000000000000000000e+00 0.000000000000000000e+00 -3.053661335999999782e+00 5.269105964999999614e+00 0.000000000000000000e+00 -2.017061239999999867e-01 4.252182820000000030e-01 1.039240997099999930e+01
6.158471054999999694e+00 0.000000000000000000e+00 0.000000000000000000e+00 -3.185328644999999792e+00 5.276068260999999815e+00 0.000000000000000000e+00 2.737107540000000006e-01 -7.275957399999999353e-02 1.060580715400000074e+01
6.193768207999999831e+00 0.000000000000000000e+00 0.000000000000000000e+00 -3.124916075999999876e+00 5.382061446999999887e+00 0.000000000000000000e+00 -2.111393970000000064e-01 1.075203539999999985e-01 1.018586414800000028e+01
6.219150864999999584e+00 0.000000000000000000e+00 0.000000000000000000e+00 -3.157803739999999859e+00 5.347589632000000037e+00 0.000000000000000000e+00 -1.519968050000000126e-01 5.301338829999999724e-01 1.012651736499999977e+01
6.315998234000000267e+00 0.000000000000000000e+00 0.000000000000000000e+00 -3.182857462999999942e+00 5.427055058999999737e+00 0.000000000000000000e+00 6.754424000000000192e-03 4.690133800000000075e-02 1.039943874799999968e+01
6.325681654000000265e+00 0.000000000000000000e+00 0.000000000000000000e+00 -3.361005559000000087e+00 5.343548755999999678e+00 0.000000000000000000e+00 -3.616710280000000055e-01 3.150689899999999932e-01 9.940288379000000063e+00
6.145365437999999791e+00 0.000000000000000000e+00 0.000000000000000000e+00 -3.186688188999999838e+00 5.357831935000000101e+00 0.000000000000000000e+00 -3.436367109999999836e-01 6.550916989999999718e-01 9.929307001999999827e+00
6.240391982000000226e+00 0.000000000000000000e+00 0.000000000000000000e+00 -3.194242076000000097e+00 5.373884967000000401e+00 0.000000000000000000e+00 -1.546482039999999891e+00 8.604298889999999478e-01 1.025350267099999968e+01
6.200101197999999592e+00 0.000000000000000000e+00 0.000000000000000000e+00 -3.036867163000000147e+00 5.345816344000000164e+00 0.000000000000000000e+00 -3.979300459999999817e-01 2.913793370000000160e-01 9.855072034999999175e+00
6.320358785999999895e+00 0.000000000000000000e+00 0.000000000000000000e+00 -2.991889292999999839e+00 5.510271105000000169e+00 0.000000000000000000e+00 -1.073664289999999993e-01 -1.952905139999999928e+00 1.017590392299999991e+01
6.184954523000000037e+00 0.000000000000000000e+00 0.000000000000000000e+00 -3.153717765000000117e+00 5.381376925999999727e+00 0.000000000000000000e+00 -1.759100239999999982e-01 -1.177256180000000041e-01 1.073092022099999987e+01
6.235861013000000064e+00 0.000000000000000000e+00 0.000000000000000000e+00 -3.115605067000000172e+00 5.425327733999999680e+00 0.000000000000000000e+00 -1.164183771999999895e+00 6.858526499999999526e-01 1.032979303299999962e+01
6.222442123999999630e+00 0.000000000000000000e+00 0.000000000000000000e+00 -3.249149554000000162e+00 5.304028963999999569e+00 0.000000000000000000e+00 4.897460700000000333e-02 3.101990669999999950e-01 1.018621586699999959e+01
6.461111200000000387e+00 0.000000000000000000e+00 0.000000000000000000e+00 -3.466564654999999995e+00 5.443042521999999828e+00 0.000000000000000000e+00 -1.103426682999999908e+00 6.404900770000000465e-01 9.927192982999999415e+00
6.301506426999999633e+00 0.000000000000000000e+00 0.000000000000000000e+00 -3.354921202999999963e+00 5.428062984000000313e+00 0.000000000000000000e+00 -8.584536139999999760e-01 3.624886050000000193e-01 1.012254573899999954e+01
