1.716999999999999993e-03 1.849901000000000018e+00 2.678329999999999878e-01 6.988379999999999592e-01 -8.638000000000000123e-01 -1.653040000000000065e-01 1.533290000000000042e+00 -2.236420000000000075e-01 3.001866999999999841e+00 -1.061479999999999979e+00 1.405221999999999971e+00 -9.640239999999999920e-01 -2.071073999999999860e+00 3.456380000000000008e-01 -7.723199999999999510e-02 -1.218450999999999951e+00 -1.399604000000000070e+00 4.097879999999999967e+00 -8.554389999999999494e-01 -8.451699999999999491e-02 1.398520999999999903e+00 -3.180399999999999894e-02 1.639504000000000072e+00 1.324594000000000049e+00 -1.663148999999999988e+00 4.456494000000000177e+00 -2.958390000000000075e+00 1.394835999999999965e+00 -2.239899999999999947e-01 -1.194801000000000002e+00 -5.710760000000000280e-01 1.695972999999999953e+00 1.281619999999999981e-01 1.533306000000000058e+00 2.487699999999999981e-02 -6.021999999999999575e-03 4.746340000000000003e-01 1.017816000000000054e+00 -2.555000000000000049e-01 -4.015839999999999965e-01 2.610495999999999928e+00 -2.661099999999999924e-02 1.631531999999999982e+00 -4.827609999999999957e-01 8.000410000000000021e-01 -3.969310999999999812e+00 1.663891000000000009e+00 -1.662119999999999986e-01 1.359615000000000018e+00 -2.672829999999999928e-01 3.133179999999999854e-01 2.137291999999999970e+00 2.674849000000000032e+00 -2.090187999999999935e+00 1.697484999999999911e+00 -5.808269999999999822e-01 1.021549999999999958e+00 1.511697999999999986e+00 -9.101280000000000481e-01 5.504029999999999756e-01 1.040793000000000079e+00 -1.556624999999999925e+00 -1.249128000000000016e+00 1.208051999999999904e+00 -2.081917999999999935e+00 -1.084238999999999953e+00 -2.985612999999999850e+00 -4.968119999999999759e-01 6.074429999999999552e-01 1.764040999999999970e+00 1.602001999999999926e+00 -2.575298000000000087e+00 -1.188320999999999961e+00 5.521620000000000417e-01 -2.426486999999999838e+00 -2.637179000000000162e+00 -2.363100000000000200e+00 2.018482999999999805e+00 -1.086861000000000077e+00 -5.398089999999999833e-01 -1.496167000000000025e+00 2.070615000000000094e+00 -3.564400000000000013e+00 1.680261999999999922e+00 2.441899999999999904e-01 5.264870000000000383e-01 -2.376691999999999805e+00 -1.018629000000000007e+00 -1.254334000000000060e+00 -6.749119999999999564e-01 7.973270000000000080e-01 6.470040000000000235e-01 -2.279685000000000183e+00 3.324909999999999810e-01 -5.366980000000000084e-01 1.131342000000000070e+00 -1.128838999999999926e+00 2.380470000000000086e-01 -1.933070000000000066e-01 -1.095099999999999962e-01 5.086330000000000018e-01 -4.905200000000000116e-01 9.862200000000000133e-02 3.158489999999999909e-01 1.857585000000000042e+00 -8.859860000000000513e-01 -2.109959999999999891e-01 2.410390000000000033e+00 1.811860000000000137e-01 -5.463599999999999568e-01 -2.508230000000000182e-01 9.890300000000000480e-02 -7.763550000000000173e-01 1.456576000000000093e+00 -7.699110000000000120e-01 4.000799999999999912e-01 1.401290000000000036e-01 -2.509770000000000056e-01 -4.031530000000000058e+00 1.156384000000000079e+00 2.895860000000000101e-01 -1.450860000000000039e+00 -2.347068999999999850e+00 6.905649999999999844e-01 -2.722717999999999972e+00 1.949281000000000041e+00 -1.420970999999999984e+00 2.346713999999999967e+00 1.561077000000000048e+00 4.250749999999999806e-01 1.541440000000000032e-01 -1.902219000000000104e+00 7.187350000000000128e-01 -1.722488000000000019e+00 7.686880000000000379e-01 2.301436999999999955e+00 1.359499999999999945e-02 -6.660679999999999934e-01 -9.096959999999999491e-01 2.202173000000000158e+00 -1.724914999999999976e+00
-1.548797999999999897e+00 -2.423236999999999863e+00 2.052760000000000140e+00 -4.137279999999999847e-01 4.855200000000000071e-01 2.134259999999999824e+00 -1.473797000000000024e+00 -1.405248000000000053e+00 -1.158312999999999926e+00 -1.859167999999999932e+00 3.785330000000000084e-01 -6.840659999999999519e-01 7.790540000000000243e-01 -1.034481999999999902e+00 -9.556449999999999667e-01 6.238129999999999509e-01 -1.614023999999999903e+00 7.430203999999999809e+00 2.238310000000000022e-01 1.946296999999999944e+00 3.473689999999999833e-01 -2.404999999999999916e-01 -9.495989999999999709e-01 3.734535000000000160e+00 -2.250919999999999865e-01 -3.128380000000000050e-01 -9.042130000000000445e-01 1.808783999999999947e+00 1.341520999999999963e+00 -1.929420000000000024e-01 2.638653999999999833e+00 -8.812339999999999618e-01 -2.937000000000000166e-01 9.890229999999999855e-01 -1.853533000000000097e+00 6.400799999999999546e-02 -2.013650999999999858e+00 1.242804000000000020e+00 -2.237373999999999974e+00 1.094737999999999989e+00 -4.675788999999999973e+00 -2.790071000000000190e+00 -3.390976000000000212e+00 7.598249999999999726e-01 -1.204690000000000066e-01 3.031133000000000077e+00 1.298731000000000080e+00 -1.887220000000000009e-01 5.182290000000000507e-01 1.393094999999999972e+00 -1.616360000000000019e-01 -6.084190000000000431e-01 -6.317500000000000338e-01 -9.532990000000000075e-01 -1.861081999999999903e+00 1.310956999999999928e+00 4.598409999999999997e-01 -7.281959999999999544e-01 4.167200000000000071e-02 -8.656989999999999963e-01 7.660869999999999624e-01 -1.159284999999999899e+00 -5.538900000000000073e-02 -1.379807000000000006e+00 2.830150000000000166e-01 3.234929999999999750e-01 -1.005250999999999895e+00 1.258243999999999918e+00 -5.397950000000000248e-01 -2.888438999999999979e+00 5.361460000000000115e-01 1.414020000000000055e+00 1.994461000000000039e+00 4.686670000000000003e-01 -1.908786000000000094e+00 -1.269240000000000090e-01 -7.154199999999999449e-02 3.520710000000000228e-01 2.930058999999999969e+00 -1.717584000000000000e+00 1.904060000000000086e+00 1.559608000000000105e+00 4.052557000000000187e+00 1.414684000000000053e+00 7.679580000000000295e-01 -1.408139999999999947e-01 -6.155040000000000511e-01 -4.688680000000000070e-01 -1.027080999999999911e+00 -6.102320999999999884e+00 4.110909999999999842e-01 -2.369562000000000168e+00 4.762919999999999932e-01 4.184840000000000226e-01 1.377845999999999904e+00 -1.879245000000000054e+00 1.365280000000000105e-01 7.525789999999999980e-01 -2.087733000000000061e+00 -1.689033999999999924e+00 -1.370821000000000067e+00 -1.389361000000000068e+00 2.299434999999999896e+00 -4.906699999999999950e-02 9.413599999999999746e-02 1.685931999999999986e+00 -1.282472000000000056e+00 -5.547619999999999774e-01 -1.179945000000000022e+00 7.566260000000000208e-01 -4.733370000000000077e-01 -4.928850000000000176e-01 -6.163300000000000028e-02 -1.805161999999999933e+00 5.551089999999999636e-01 -6.514400000000000190e-01 9.028399999999999759e-01 -1.501220999999999917e+00 -2.989149999999999863e-01 6.049280000000000213e-01 -7.436319999999999597e-01 6.071579999999999755e-01 -3.270230000000000081e-01 2.335980000000000167e+00 1.763752999999999904e+00 1.022237999999999980e+00 1.247352000000000016e+00 -1.276472999999999969e+00 1.375053000000000081e+00 2.339090000000000058e-01 1.228051999999999921e+00 2.377730000000000121e+00 2.749700000000000061e-02 2.067525999999999975e+00 7.303739999999999677e-01 -1.068459000000000048e+00 -5.257049999999999779e-01 1.898549999999999960e-01 -2.168877000000000166e+00 2.433005000000000084e+00 -1.601829999999999921e-01
6.594729999999999759e-01 -9.919540000000000024e-01 -1.980305999999999900e+00 -6.684084000000000358e+00 -3.040963999999999778e+00 -1.794035000000000046e+00 -1.103849999999999970e-01 -6.066169999999999618e-01 -1.850808999999999926e+00 -3.646110999999999880e+00 -2.183097000000000065e+00 -1.548518999999999979e+00 2.436531000000000002e+00 -4.351119999999999988e-01 -3.843779999999999974e-01 -5.398269999999999458e-01 2.063947000000000198e+00 1.804696000000000078e+00 -4.010951000000000377e+00 -1.253150000000000097e-01 -1.968147000000000091e+00 2.099906999999999968e+00 1.511627999999999972e+00 2.800500000000000211e-01 2.078139999999999987e-01 2.583619999999999806e-01 1.730013000000000023e+00 2.714364000000000221e+00 -6.289130000000000553e-01 -5.084729999999999528e-01 -1.947060000000000013e+00 -7.714400000000000424e-02 -1.012002999999999986e+00 2.816924000000000206e+00 -1.375261999999999984e+00 -1.204048999999999925e+00 -1.128689000000000053e+00 4.536129999999999884e-01 -1.054353000000000096e+00 -6.007439999999999447e-01 2.193154999999999966e+00 1.804532000000000025e+00 2.837999999999999898e-02 1.470930000000000015e-01 5.850400000000000045e-01 -1.844880000000000075e+00 -3.320596000000000103e+00 -1.110805999999999960e+00 -8.166199999999999848e-02 -9.836669999999999581e-01 1.402287999999999979e+00 -1.455799999999999976e-02 -3.306484999999999896e+00 -1.488800000000000019e-02 -1.906833999999999918e+00 8.694790000000000019e-01 1.757479999999999876e-01 -1.361789999999999945e-01 1.577272999999999925e+00 2.075940000000000119e+00 -1.693945999999999952e+00 7.171039999999999637e-01 1.149248999999999965e+00 6.610289999999999777e-01 -1.645600000000000118e-01 2.008678000000000186e+00 -1.025869999999999976e-01 -8.834720000000000351e-01 -1.066151999999999989e+00 -1.437249999999999917e+00 3.549299999999999677e-02 -7.833339999999999748e-01 1.070819999999999966e-01 -1.713254000000000055e+00 1.483327999999999980e+00 1.678936999999999902e+00 9.253230000000000066e-01 4.761100000000000054e-02 -8.935689999999999467e-01 -5.536849999999999827e-01 -1.085957000000000061e+00 1.576861000000000068e+00 -1.262140000000000040e+00 -4.613400000000000140e-02 -1.717686999999999964e+00 1.397791000000000006e+00 5.161540000000000017e-01 -3.395139999999999825e-01 1.238685000000000036e+00 1.909760000000000069e-01 2.617752999999999997e+00 -1.365153000000000061e+00 9.898689999999999989e-01 -6.111619999999999830e-01 -1.458563999999999972e+00 5.753719999999999946e-01 2.128741000000000216e+00 5.524390000000000134e-01 -3.160407000000000188e+00 3.599950000000000094e-01 -4.332130000000000147e-01 1.119750999999999941e+00 2.150539000000000200e+00 1.569119999999999959e-01 -8.922409999999999508e-01 8.839500000000000135e-01 3.554497000000000018e+00 1.491255999999999915e+00 2.579169999999999963e+00 7.003200000000000536e-01 8.094919999999999893e-01 4.199399999999999800e-01 5.996810000000000196e-01 1.174967000000000095e+00 -5.689640000000000253e-01 -1.144438000000000066e+00 1.922377000000000002e+00 -1.512625000000000108e+00 2.874413999999999803e+00 -7.873740000000000183e-01 3.070729999999999849e-01 8.577600000000000502e-02 -7.277630000000000488e-01 4.734410000000000007e-01 -8.440549999999999997e-01 -1.344637000000000082e+00 3.891353000000000062e+00 2.144468999999999959e+00 1.147983999999999893e+00 -2.735839999999999939e-01 2.837500000000000022e-01 -2.021761999999999837e+00 1.175173999999999941e+00 9.791999999999999593e-01 1.247899000000000092e+00 5.236960000000000504e-01 -8.434369999999999923e-01 -1.055590000000000001e-01 -6.952770000000000339e-01 2.420694000000000123e+00 7.188160000000000105e-01
-5.880539999999999656e-01 -1.077020000000000088e+00 -1.746960000000000068e+00 3.631829999999999781e-01 -2.414099999999999926e-02 -2.110460999999999920e+00 5.677820000000000089e-01 2.634335000000000093e+00 5.340099999999999708e-02 1.458174999999999999e+00 1.393753999999999937e+00 1.778122999999999898e+00 7.365239999999999565e-01 8.570200000000000040e-02 -5.868470000000000075e-01 -4.964399999999999924e-01 9.254949999999999566e-01 -7.171039999999999637e-01 -8.276550000000000296e-01 1.617658999999999958e+00 -7.978769999999999474e-01 6.682860000000000467e-01 5.819419999999999593e-01 5.100510000000000321e-01 1.679591000000000056e+00 7.032559999999999922e-01 5.932800000000000296e-01 -3.112518000000000118e+00 7.533600000000000019e-02 -2.318661999999999779e+00 1.817204000000000041e+00 3.858670000000000155e-01 -8.753549999999999942e-01 -9.131400000000000627e-02 -3.100318000000000129e+00 2.055452999999999975e+00 -1.604454000000000047e+00 -3.880654999999999966e+00 2.787439999999999918e-01 1.266400000000000026e-01 -2.231901000000000135e+00 2.115794000000000175e+00 2.208455999999999975e+00 1.393806000000000100e+00 1.543166000000000038e+00 8.989599999999999813e-01 9.610809999999999631e-01 -2.091700000000000156e-02 3.363920000000000243e-01 -1.646449000000000051e+00 -2.708820000000000117e-01 -1.250818999999999903e+00 -9.454120000000000301e-01 -9.707489999999999730e-01 1.838233000000000006e+00 2.609510999999999914e+00 -1.353270000000000028e-01 2.017113999999999852e+00 2.608642000000000127e+00 9.329640000000000155e-01 -5.560209999999999875e-01 3.530309999999999837e-01 1.253440000000000110e+00 6.818469999999999809e-01 -2.961210000000000231e-01 6.151229999999999754e-01 -4.744869999999999921e-01 -2.217115000000000169e+00 9.834159999999999568e-01 3.633279999999999843e-01 -3.550390999999999853e+00 9.254719999999999613e-01 -6.316469999999999585e-01 -1.709583000000000075e+00 1.664069999999999938e+00 -2.942050000000000054e+00 2.377350000000000019e-01 3.081119999999999970e-01 -2.896473999999999993e+00 2.031079000000000079e+00 -1.261630000000000029e+00 3.171199999999999714e-02 -5.899670000000000192e-01 8.078300000000000480e-01 -4.630310000000000259e-01 2.416811000000000043e+00 -4.787399999999999989e-01 4.167499999999999677e-02 -1.007070000000000048e-01 1.539250000000000007e+00 -5.046340000000000270e-01 -7.417160000000000419e-01 -2.230862999999999818e+00 3.771300000000000346e-02 5.787157999999999802e+00 -1.082505999999999968e+00 3.580999999999999982e-03 -1.483351000000000086e+00 8.075899999999999745e-02 -1.804321999999999981e+00 -6.755320000000000213e-01 6.665969999999999951e-01 1.633142000000000094e+00 4.574329999999999785e-01 -2.172620000000000218e+00 9.053300000000000236e-02 -2.784240000000000048e+00 6.203199999999999825e-01 1.315023000000000053e+00 -3.183831000000000078e+00 8.764089999999999936e-01 1.837020000000000097e+00 -8.602049999999999974e-01 1.096059999999999951e-01 1.945947000000000093e+00 6.465149999999999508e-01 -1.260272000000000059e+00 -1.078360999999999903e+00 3.718179999999999819e-01 -1.186212999999999962e+00 2.765763999999999889e+00 1.840656000000000070e+00 4.338600000000000095e-02 -9.681419999999999471e-01 -1.047365000000000101e+00 7.733710000000000306e-01 -1.679977999999999971e+00 -1.787808999999999982e+00 -1.524578999999999906e+00 -7.741569999999999840e-01 1.217842000000000091e+00 7.905710000000000237e-01 2.247220000000000051e-01 6.356000000000000538e-01 -9.153989999999999627e-01 -1.507068000000000074e+00 6.897919999999999607e-01 -3.051820000000000088e-01 -1.436919000000000057e+00 1.271970000000000045e+00 1.050440000000000040e+00
1.293177000000000021e+00 -7.046160000000000201e-01 2.241200000000000137e-02 9.142649999999999944e-01 -6.588399999999999812e-02 -9.176410000000000400e-01 -1.434765999999999986e+00 3.475000000000000311e-02 8.724859999999999838e-01 1.184719999999999940e-01 -1.804510999999999976e+00 -1.942684999999999995e+00 1.511058000000000012e+00 -1.175324999999999953e+00 -2.914340000000000264e-01 1.400220000000000076e-01 1.199156000000000111e+00 6.230329999999999480e-01 9.838470000000000271e-01 -7.926320000000000032e-01 2.151669999999999972e-01 7.611329999999999485e-01 2.010369999999999935e-01 -6.023070000000000368e-01 1.318508999999999931e+00 -1.686350000000000071e-01 -1.701772000000000062e+00 1.373903000000000096e+00 3.300449999999999773e-01 -9.230660000000000531e-01 -1.829646000000000106e+00 5.735620000000000163e-01 -4.818599999999999967e-02 1.266482000000000108e+00 -1.468049999999999911e-01 -6.724099999999999522e-02 -1.558202000000000087e+00 -1.698689999999999922e-01 6.056949999999999834e-01 -7.559059999999999668e-01 -8.154160000000000297e-01 1.110128000000000004e+00 1.659529999999999894e-01 2.045202000000000186e+00 1.597121000000000013e+00 -2.490702000000000194e+00 3.596460000000000212e-01 4.731199999999999850e-01 1.039639999999999898e+00 -1.295272999999999897e+00 1.723709999999999964e-01 -2.025409999999999988e-01 -1.593226000000000031e+00 -3.872229999999999839e-01 3.581079999999999819e-01 -1.334639999999999993e-01 1.649739000000000066e+00 -2.549983999999999806e+00 -9.688400000000000345e-01 -8.813849999999999740e-01 -2.627390000000000003e-01 -1.783530000000000115e-01 2.366999999999999993e+00 1.783679999999999988e-01 -6.968000000000000235e-03 -4.237000000000000315e-03 -6.001469999999999860e-01 -4.662890000000000090e-01 2.394219999999999959e-01 -1.186148999999999898e+00 2.526979999999999782e-01 -8.657610000000000028e-01 1.025317000000000034e+00 1.165540000000000020e+00 -6.603109999999999813e-01 -4.360200000000000187e-01 3.253293999999999908e+00 8.750019999999999465e-01 1.527077999999999935e+00 -1.223662999999999945e+00 -4.700509999999999966e-01 2.947242999999999835e+00 -5.017209999999999726e-01 -1.153019999999999934e+00 2.011800000000000047e-02 6.493710000000000315e-01 8.057170000000000165e-01 2.009338000000000068e+00 1.139011999999999913e+00 -2.085130000000000039e-01 -7.213960000000000372e-01 6.537429999999999630e-01 -5.809649999999999537e-01 2.651561000000000057e+00 9.266069999999999585e-01 4.240300000000000180e-01 -1.490842000000000001e+00 -1.135320000000000107e+00 2.459590000000000110e-01 3.166530000000000178e-01 3.135680000000000134e-01 2.136696999999999846e+00 2.180599999999999900e-02 -2.966099999999999987e-02 -8.493239999999999679e-01 -4.785199999999999870e-02 -6.634769999999999834e-01 5.999729999999999785e-01 5.384769999999999834e-01 1.432320999999999955e+00 5.443800000000000028e-02 -1.057120000000000060e+00 5.328399999999999803e-01 2.452449999999999908e-01 1.156504999999999894e+00 -4.110599999999999810e-01 -1.053822000000000036e+00 -3.728119999999999767e-01 -3.938920000000000199e-01 -1.204310999999999909e+00 -7.192099999999999882e-02 4.933199999999999807e-01 7.872510000000000341e-01 -1.425043000000000060e+00 2.756810000000000094e-01 -1.007851999999999970e+00 -8.350200000000000677e-02 -1.406614000000000031e+00 7.604579999999999673e-01 -6.029339999999999700e-01 -1.028685999999999989e+00 -6.038099999999999717e-02 -2.542418000000000067e+00 1.596753000000000089e+00 -3.411170000000000035e-01 -6.917180000000000550e-01 -1.405569999999999875e-01 -2.171260000000000134e-01 -1.222674999999999956e+00 -7.389999999999999868e-03 -4.427309999999999857e-01
-5.091869999999999452e-01 2.450940000000000063e-01 -5.658290000000000264e-01 -3.283380000000000187e-01 2.568494999999999973e+00 3.119649999999999923e-01 -3.755319999999999769e-01 9.866400000000000170e-02 4.139100000000000001e-01 1.197011999999999965e+00 1.884919999999999929e-01 -6.906889999999999974e-01 1.693440000000000056e+00 2.365859999999999908e-01 1.327212999999999976e+00 6.845630000000000326e-01 -2.035595999999999961e+00 2.375430000000000041e-01 6.573900000000000576e-02 6.563400000000000345e-01 -1.324700000000000044e-01 -3.426099999999999979e-02 3.362258000000000191e+00 4.173109999999999875e-01 -8.743670000000000053e-01 -4.073519999999999919e-01 -3.521949999999999803e-01 -9.426000000000000351e-03 -4.176340000000000052e-01 -4.135769999999999724e-01 -1.196957000000000049e+00 -1.981055999999999928e+00 -8.912719999999999532e-01 6.256399999999999462e-02 -1.147437000000000040e+00 4.063869999999999982e-01 -2.450863000000000014e+00 3.951819999999999777e-01 1.199894000000000016e+00 1.612020999999999926e+00 9.503810000000000313e-01 -1.574220000000000064e-01 2.441450000000000009e-01 -9.564460000000000184e-01 8.161190000000000389e-01 2.756117999999999846e+00 -1.157807000000000031e+00 5.890969999999999818e-01 -1.853219999999999867e-01 2.960570000000000146e-01 -7.144620000000000415e-01 3.937539999999999929e-01 -6.546480000000000077e-01 -8.718000000000000055e-03 -3.100220000000000198e-01 8.717669999999999586e-01 1.123299999999999993e-02 1.659362000000000004e+00 7.371640000000000414e-01 -1.223324000000000078e+00 -2.307485999999999926e+00 4.926949999999999941e-01 -8.000699999999999479e-02 -1.276326999999999989e+00 1.039778000000000091e+00 1.075752999999999959e+00 -6.690150000000000263e-01 -1.007231999999999905e+00 5.252430000000000154e-01 -4.059209999999999763e-01 -1.916639999999999899e+00 2.064999999999999891e-01 1.120246000000000075e+00 -1.117580999999999936e+00 -5.065819999999999768e-01 -5.643329999999999735e-01 -6.731840000000000046e-01 -4.249510000000000232e-01 7.907899999999999652e-02 -7.050429999999999753e-01 -5.764400000000000079e-02 -3.726299999999999751e-02 -1.045070000000000027e-01 -3.642589999999999995e-01 -5.804200000000000331e-02 3.659609999999999808e-01 -2.627809999999999868e-01 -3.683500000000000107e-01 2.144242999999999899e+00 -8.195350000000000135e-01 8.853769999999999696e-01 8.424779999999999491e-01 -4.421309999999999962e-01 -1.205734000000000083e+00 5.757609999999999673e-01 1.625959999999999905e-01 2.198376000000000108e+00 -6.329599999999999671e-01 3.238599999999999812e-01 -6.485560000000000214e-01 -3.986219999999999763e-01 -8.179870000000000196e-01 2.845210000000000239e-01 7.401419999999999666e-01 -5.235279999999999934e-01 1.879429999999999990e-01 5.017779999999999463e-01 5.646750000000000380e-01 9.673300000000000232e-01 -7.332579999999999654e-01 -3.240500000000000325e-02 3.573160000000000225e-01 -7.706579999999999542e-01 2.633130000000000193e-01 -1.335517999999999983e+00 1.069433999999999996e+00 -2.654130000000000100e-01 2.688840000000000119e-01 1.441184999999999938e+00 3.605349999999999944e-01 -2.306204000000000143e+00 -2.957929999999999726e-01 -4.941180000000000017e-01 -4.030079999999999774e-01 -9.932720000000000438e-01 -2.348220000000000030e-01 -1.691749999999999921e-01 -1.288721999999999923e+00 1.189202000000000092e+00 1.027155999999999958e+00 1.227937999999999974e+00 4.080230000000000246e-01 -8.437900000000000400e-01 2.436409999999999965e-01 -4.520719999999999739e-01 -5.522820000000000507e-01 1.273512999999999895e+00 5.695559999999999512e-01 1.680331000000000019e+00 -3.169578000000000007e+00 -4.517369999999999997e-01
-4.036599999999999910e-02 -5.700699999999999656e-01 4.845619999999999927e-01 -2.433098000000000205e+00 -1.994650999999999952e+00 -1.377110000000000001e-01 -7.445310000000000539e-01 -3.456549999999999900e-01 1.440277999999999947e+00 4.079929999999999946e-01 1.808869000000000060e+00 -1.976779999999999926e-01 -5.816926999999999737e+00 -1.980472999999999928e+00 1.170617999999999936e+00 -4.941710000000000269e-01 2.398451999999999806e+00 6.612350000000000172e-01 5.139650000000000052e-01 -5.112630000000000230e-01 -3.805700000000000194e-01 -1.024899999999999922e+00 1.443816999999999906e+00 -1.136884000000000006e+00 -1.009509999999999907e+00 -3.255270000000000108e-01 -3.354750000000000121e+00 -2.122229999999999950e-01 2.185243999999999964e+00 -9.314670000000000449e-01 -7.882339999999999902e-01 -3.242499999999999827e-01 -8.312869999999999981e-01 1.399650999999999978e+00 2.285747999999999891e+00 2.329358000000000040e+00 6.326819999999999666e-01 -1.314611999999999892e+00 1.484302000000000010e+00 6.604299999999999615e-01 -2.600810000000000066e-01 -3.673910000000000231e-01 3.775919999999999832e-01 -5.035199999999999676e-01 9.806529999999999969e-01 3.657839999999999980e-01 1.770995000000000097e+00 -1.974461000000000022e+00 2.727196999999999871e+00 1.703893000000000102e+00 5.511679999999999913e-01 -9.198960000000000470e-01 1.224213999999999913e+00 1.198995000000000033e+00 1.546423000000000103e+00 -5.205432000000000059e+00 1.195689999999999920e+00 -5.607299999999999784e-02 5.957770000000000010e-01 -1.046599999999999961e-02 -1.227057999999999982e+00 2.572849999999999859e-01 1.762880999999999920e+00 2.618208000000000091e+00 -1.680490000000000039e-01 5.361699999999999799e-02 -1.581129999999999924e+00 7.938899999999999846e-01 -1.636859999999999982e-01 -1.343452000000000091e+00 -3.434029000000000220e+00 4.421329999999999982e-01 -1.317496000000000000e+00 -1.170825999999999922e+00 3.615019999999999900e-01 1.433141999999999916e+00 -8.917279999999999651e-01 1.749100000000000099e-01 1.530189999999999884e-01 1.060929999999999929e+00 -7.004759999999999875e-01 -3.250758999999999954e+00 -1.327520000000000033e+00 -4.423599999999999755e-01 -4.358659999999999757e-01 2.897040000000000171e-01 2.514190000000000036e-01 8.980460000000000109e-01 -1.165191000000000088e+00 8.753609999999999447e-01 1.272191999999999990e+00 1.000173999999999896e+00 2.506200000000000094e-01 -1.313199999999999923e+00 1.469035000000000091e+00 1.926987000000000005e+00 4.447110000000000229e-01 3.051772999999999847e+00 -2.597763000000000044e+00 2.937939999999999996e-01 1.078240000000000032e-01 2.129645000000000010e+00 -1.405089999999999950e+00 -4.047769999999999979e-01 -2.283206999999999987e+00 1.011686000000000085e+00 2.408408999999999800e+00 1.724536000000000069e+00 -1.332214999999999927e+00 7.766359999999999930e-01 -3.908249999999999780e-01 -3.964719999999999911e-01 -2.189763999999999822e+00 -1.258259999999999934e-01 8.028250000000000108e-01 -3.588108000000000075e+00 2.628869999999999818e-01 -1.378910000000000136e-01 -1.277517999999999931e+00 -7.116799999999999515e-02 1.160420000000000063e-01 -2.628969999999999918e-01 -8.620619999999999949e-01 -6.449540000000000273e-01 1.235244000000000009e+00 -7.500809999999999977e-01 2.066034000000000148e+00 -1.419591000000000047e+00 2.840719999999999912e-01 1.940326999999999913e+00 1.431950999999999974e+00 -7.393889999999999629e-01 -1.440887999999999947e+00 -1.965602999999999989e+00 7.335399999999999698e-01 5.867252999999999830e+00 2.298184000000000005e+00 -2.932995000000000019e+00 1.817401999999999962e+00 1.003087999999999980e+00 -1.348468000000000000e+00
-2.320309999999999873e-01 -2.033412999999999915e+00 -6.313870000000000315e-01 2.395534000000000052e+00 -8.554200000000000692e-02 -6.636499999999999344e-02 6.214100000000000179e-02 -8.081900000000000195e-02 5.393860000000000321e-01 -2.380180000000000184e+00 -1.760849000000000109e+00 3.751680000000000015e-01 -1.519270000000000065e-01 4.778060000000000085e-01 7.836159999999999792e-01 6.414290000000000269e-01 -1.009680000000000022e-01 6.941669999999999785e-01 9.609820000000000029e-01 -1.163194000000000061e+00 5.485269999999999868e-01 1.598610000000000031e-01 -7.612689999999999735e-01 7.877279999999999838e-01 1.426099999999999937e-02 1.124039000000000010e+00 1.382263000000000019e+00 -4.516769999999999952e-01 5.161135999999999946e+00 -1.772789999999999921e-01 -3.037989999999999857e-01 5.918560000000000487e-01 3.139290000000000136e-01 -5.280709999999999571e-01 7.641099999999999559e-01 -8.912499999999999589e-02 8.617000000000000215e-01 1.431373000000000006e+00 -4.359149999999999969e-01 2.991289999999999782e-01 2.666488000000000191e+00 -6.751960000000000184e-01 2.145537000000000027e+00 7.260780000000000012e-01 -9.309439999999999937e-01 2.937660000000000271e-01 -9.049869999999999859e-01 -9.586139999999999661e-01 2.468342999999999954e+00 1.257481999999999989e+00 1.203597000000000028e+00 1.409050000000000025e-01 -2.611162999999999901e+00 -8.229109999999999481e-01 1.389199000000000073e+00 1.472110000000000030e+00 -7.063850000000000406e-01 -3.127539000000000069e+00 2.475521000000000083e+00 -4.398719999999999852e-01 -1.429202000000000083e+00 9.860619999999999941e-01 -1.267579000000000011e+00 -6.613200000000000189e-01 -6.984139999999999793e-01 -2.582900000000000126e-02 1.370826000000000100e+00 8.317719999999999558e-01 3.313610000000000166e-01 -7.776560000000000139e-01 -6.621160000000000379e-01 -1.200517000000000056e+00 -2.186697999999999809e+00 -3.474720000000000031e-01 -4.392000000000000071e-02 1.717279000000000000e+00 5.362909999999999622e-01 1.771310000000000107e-01 -1.089480000000000032e-01 1.394189999999999874e-01 2.072900000000000020e-01 -5.712279999999999580e-01 -5.048820000000000530e-01 6.847999999999999921e-03 -2.642348999999999837e+00 -1.063679000000000041e+00 4.030210000000000181e-01 3.789580000000000171e-01 1.637329000000000034e+00 9.976200000000000345e-02 4.537599999999999967e-02 -2.179517000000000149e+00 -1.100789999999999963e-01 1.875680999999999932e+00 -9.902440000000000131e-01 9.025800000000000489e-01 -4.047439999999999927e-01 -2.541541000000000050e+00 -1.687629999999999963e-01 1.348770000000000024e+00 1.115113000000000021e+00 3.079540000000000055e-01 4.293179999999999774e-01 5.388199999999999934e-02 2.462429999999999897e-01 1.833390000000000020e-01 -1.544694000000000011e+00 1.942369999999999930e-01 8.808329999999999771e-01 -8.742189999999999683e-01 -1.555979999999999863e-01 -1.982780999999999905e+00 -2.850889999999999813e-01 -4.597809999999999953e-01 4.305660000000000043e-01 -1.086341999999999919e+00 4.597899999999999765e-01 2.150239999999999929e-01 8.748650000000000038e-01 1.422400000000000053e-02 -1.743273000000000073e+00 2.590130999999999961e+00 -7.818999999999999562e-02 -2.159838000000000147e+00 -1.329179000000000110e+00 2.436500000000000124e-02 -7.399000000000000195e-03 -4.404542000000000179e+00 2.978700000000000236e-01 -1.027460000000000040e-01 -5.251660000000000217e-01 1.147728999999999999e+00 2.283053999999999917e+00 -9.889059999999999517e-01 -8.611750000000000238e-01 -3.526610000000000023e-01 2.251675999999999789e+00 1.927719999999999989e-01 -6.857440000000000202e-01 3.636650000000000160e-01 -1.336132000000000097e+00