-1.739606876935890156e+01 8.171450510153789537e+00 -4.434720447055317649e+00 8.171450510153789537e+00 -3.105748419940417282e+00 -2.524416154664701040e+00 -4.434720447055317649e+00 -2.524416154664701040e+00 -1.107648629618922875e+01
-8.112154738247896901e+00 -6.806242673752071148e+00 2.227059728601113786e+00 -6.806242673752071148e+00 -1.359958765301587214e+01 8.159150909631440740e+00 2.227059728601113786e+00 8.159150909631440740e+00 1.934848111678419968e+01
-1.790883333497318830e+01 1.509700758928713693e+00 6.869096615951753471e+00 1.509700758928713693e+00 -1.420266192971518393e+01 1.319313092365431483e+00 6.869096615951753471e+00 1.319313092365431483e+00 2.060747050837889116e+00
-1.674749864103299757e+01 1.328449420541697901e+00 1.291299785816417023e+00 1.328449420541697901e+00 7.683078503390012859e-01 1.446959477375111103e+00 1.291299785816417023e+00 1.446959477375111103e+00 -2.745131167884343526e+01
5.994094847720606190e+00 -8.268777448839120581e+00 5.307107041809621784e+00 -8.268777448839120581e+00 1.091972355913209114e+01 3.547031139828479063e+00 5.307107041809621784e+00 3.547031139828479063e+00 -1.533670663118734723e+01
6.076745892053857290e+00 -4.199877977348865699e+00 -4.952442765887139942e+00 -4.199877977348865699e+00 -1.536142617444105074e+00 -3.773409196899416562e-01 -4.952442765887139942e+00 -3.773409196899416562e-01 -8.305547192246102384e+00
-1.645131078815969872e+00 5.197271683866452108e+00 -7.251543356374986260e+00 5.197271683866452108e+00 2.758571066697303209e+01 -4.201021455088884693e+00 -7.251543356374986260e+00 -4.201021455088884693e+00 -2.353304577366197492e+01
1.601768774808776996e+01 7.461549797439760434e-01 2.902248024301838480e+00 7.461549797439760434e-01 5.317004628254273335e+00 7.828486118339772482e-01 2.902248024301838480e+00 7.828486118339772482e-01 -1.771877680508073638e+01
2.899648223390466839e+01 -1.502641339285073929e+00 -8.115594892048521913e+00 -1.502641339285073929e+00 5.704715498062610912e+00 -4.162637617113242428e+00 -8.115594892048521913e+00 -4.162637617113242428e+00 3.237933032310331072e+01
1.603787057760848000e+01 -9.767602230763715809e+00 -3.642096412434554065e+00 -9.767602230763715809e+00 2.018029433946352569e+01 -2.610826191991929335e+00 -3.642096412434554065e+00 -2.610826191991929335e+00 6.696999371338057117e+00
8.331564765417873275e+00 -6.695667425379878246e+00 -2.978687282654432611e+00 -6.695667425379878246e+00 6.223217252002668509e+00 6.366938959684318444e-01 -2.978687282654432611e+00 6.366938959684318444e-01 -9.043107287807417904e+00
-1.099917947480228264e+01 1.198107912099151129e+01 4.240283112451137981e+00 1.198107912099151129e+01 -5.381657319209372403e+00 -2.740739835906823352e+00 4.240283112451137981e+00 -2.740739835906823352e+00 -2.132483444864822886e+01
-8.572502922046115970e+00 2.735860119886746045e+00 1.348139130853037049e+00 2.735860119886746045e+00 5.729195302278642821e+00 -1.568644571078978034e+00 1.348139130853037049e+00 -1.568644571078978034e+00 2.113911144967920208e+01
-1.585393802059976665e+01 -4.936011231603766980e+00 7.143028745255209699e+00 -4.936011231603766980e+00 -1.176118551235750376e+00 -3.619937168210846323e+00 7.143028745255209699e+00 -3.619937168210846323e+00 -2.411197200992331346e+01
-7.180418763690810557e+00 -1.078503965913697726e+01 1.113436504833034135e+00 -1.078503965913697726e+01 -1.829406847752366616e+01 -1.018036386546005145e+00 1.113436504833034135e+00 -1.018036386546005145e+00 -1.434931669963970258e+01
9.285094061403599497e+00 3.805950310247625978e+00 -2.992894944630394960e+00 3.805950310247625978e+00 2.981242665362167443e+01 1.524801092601860697e-01 -2.992894944630394960e+00 1.524801092601860697e-01 5.621244577318081248e+00
-1.949032141456297040e+01 4.621600671164521223e+00 4.858983397287548023e+00 4.621600671164521223e+00 -1.487492006074867490e+01 -4.069915750909592234e+00 4.858983397287548023e+00 -4.069915750909592234e+00 -3.684222345993497960e+00
-3.017084263303953762e+01 3.075479563608431555e+00 1.115738123475357835e+00 3.075479563608431555e+00 -2.114799807042044222e+01 -4.985009699701579144e+00 1.115738123475357835e+00 -4.985009699701579144e+00 -1.432964190648379699e+01
2.219963014388187261e+01 -1.742557394899684420e+00 3.837991768981547924e+00 -1.742557394899684420e+00 2.948058684819305242e+01 3.838412409077070486e-01 3.837991768981547924e+00 3.838412409077070486e-01 1.700710859138283571e+00
2.718531706786301783e+01 -3.789945966569354674e+00 1.231884512492990469e+00 -3.789945966569354674e+00 4.229262207868329426e+01 -8.554928781821874439e-01 1.231884512492990469e+00 -8.554928781821874439e-01 1.515590457148164560e+01
-1.124319861101377782e+01 -1.218335897068356388e+01 -2.707636433858101377e+00 -1.218335897068356388e+01 8.105069335408746412e+00 1.378976669301113622e+00 -2.707636433858101377e+00 1.378976669301113622e+00 4.413956598457277281e+00
8.232465796330883379e+00 -6.328335607325181300e+00 -3.661268401477132173e+00 -6.328335607325181300e+00 -8.077244137198153595e+00 2.595243660747010850e+00 -3.661268401477132173e+00 2.595243660747010850e+00 -4.519821834123114890e+00
2.541812729902813217e+01 -2.725140654073847202e+00 3.695774580000404930e-01 -2.725140654073847202e+00 2.046244917863404211e+01 -2.084019918685684924e+00 3.695774580000404930e-01 -2.084019918685684924e+00 1.461501891206042636e+01
2.276369836371154065e+01 5.249800918844974795e+00 6.901045425053109472e-01 5.249800918844974795e+00 1.263799449698113797e+01 -2.921088547006472913e-01 6.901045425053109472e-01 -2.921088547006472913e-01 1.169585498383342603e+01
2.495621776428209060e+01 5.202825992570535796e+00 -3.308125898603019976e+00 5.202825992570535796e+00 1.554577860544936918e+01 -9.713161827653471470e-01 -3.308125898603019976e+00 -9.713161827653471470e-01 -2.339071109101587442e+00
-9.973604183761000996e+00 1.015563523367921661e+00 4.307343374147643011e+00 1.015563523367921661e+00 -2.280988888474511356e+01 3.659753428258213148e+00 4.307343374147643011e+00 3.659753428258213148e+00 -2.030218194278170962e+00
-1.758657271011644241e+01 -1.239165955044757261e+01 -1.084625156075065266e-01 -1.239165955044757261e+01 -2.073032444692759313e+01 -2.777701594127090612e+00 -1.084625156075065266e-01 -2.777701594127090612e+00 -6.990321731116958759e+00
2.379815591212903314e+00 -4.675483733414083076e+00 -4.185519531757076805e+00 -4.675483733414083076e+00 -4.586479752583236369e+00 -2.094291622757733506e+00 -4.185519531757076805e+00 -2.094291622757733506e+00 -5.608919764419589171e+00
-9.344184334321969487e+00 7.091845360154849232e+00 -1.076996184385402522e+01 7.091845360154849232e+00 4.171945245340720199e+00 -1.011593784895005577e+01 -1.076996184385402522e+01 -1.011593784895005577e+01 -7.761957291584449525e-02
3.096036126096006669e+01 2.282370808569467724e-01 -2.636715870325085476e+00 2.282370808569467724e-01 3.023976040227712758e+01 -1.243830921464690098e+00 -2.636715870325085476e+00 -1.243830921464690098e+00 3.266105020506813617e+01
-1.321825245024328943e+01 6.363857093980066715e+00 -2.090884771474487147e-01 6.363857093980066715e+00 -3.797802352436278284e+01 5.595612197960352141e+00 -2.090884771474487147e-01 5.595612197960352141e+00 -2.197471871852952674e+00
-1.971203812096029850e-01 2.680892756680001821e+00 -3.627941428580917727e+00 2.680892756680001821e+00 -3.836640410086786801e+00 -3.993540390267254381e+00 -3.627941428580917727e+00 -3.993540390267254381e+00 3.084476600167288307e+00
3.261652423921955801e+01 -6.747586210481777869e+00 6.875127903123428474e+00 -6.747586210481777869e+00 2.365431027178593837e+01 -4.418908588507248325e+00 6.875127903123428474e+00 -4.418908588507248325e+00 1.448435256631133683e+01
-1.597423158584091141e+01 -5.928891219614705221e+00 3.527702132791540324e-01 -5.928891219614705221e+00 -8.330983117199474819e+00 -8.384700357514922597e-01 3.527702132791540324e-01 -8.384700357514922597e-01 -6.428711373416654773e+00
-6.794961311655195679e+00 4.191945957157996450e-01 1.161936150683143376e+00 4.191945957157996450e-01 -1.254041365896936711e+01 5.997439746712869280e+00 1.161936150683143376e+00 5.997439746712869280e+00 -3.585294277210464031e+01
3.642694021990875797e+01 -3.459119205659861862e+00 -3.505930567385826535e+00 -3.459119205659861862e+00 3.911951993083390278e+01 -2.600834625436199143e+00 -3.505930567385826535e+00 -2.600834625436199143e+00 2.485824750860925292e+01
3.610739029232544794e+01 7.665524786813360691e+00 -4.849937425181171768e+00 7.665524786813360691e+00 3.616146673141209789e+01 3.364507817486662944e+00 -4.849937425181171768e+00 3.364507817486662944e+00 2.562206910145614458e+01
2.209220617122752373e+01 1.074540630740720371e+00 -9.659399764325636184e+00 1.074540630740720371e+00 3.200305625545680321e+00 -6.222505167813443094e+00 -9.659399764325636184e+00 -6.222505167813443094e+00 3.395797466654963159e+01
4.169197243655244911e-01 2.933151786083384227e+00 -5.873079229131689116e-01 2.933151786083384227e+00 -6.842883527625488682e+00 -3.061040052743948081e+00 -5.873079229131689116e-01 -3.061040052743948081e+00 4.337844851213678687e+00
8.361243802620665022e+00 3.299449849575943006e+00 5.235943535607975319e-01 3.299449849575943006e+00 1.126392632213957690e+01 -3.177837810558896248e+00 5.235943535607975319e-01 -3.177837810558896248e+00 -6.435751430983759569e+00
-2.318317043126800669e+01 -8.725854546771336651e-01 4.624542429189135717e+00 -8.725854546771336651e-01 -2.816777412511740408e+01 9.639354609780929062e-01 4.624542429189135717e+00 9.639354609780929062e-01 8.341276295448169620e+00
1.232617522817458600e+01 6.283839118284957337e-01 7.861395691038616462e+00 6.283839118284957337e-01 1.573532918913293699e+01 -9.806905123025217996e-01 7.861395691038616462e+00 -9.806905123025217996e-01 -8.836276634219242254e+00
7.218215281507298187e+00 -2.196430524004562845e-01 2.257609885531877580e+00 -2.196430524004562845e-01 -7.757240129524735295e+00 2.567221653360840072e+00 2.257609885531877580e+00 2.567221653360840072e+00 -2.101148462947044138e+01
1.704834579914038173e+01 2.825611959054516564e+00 5.213965185236937749e+00 2.825611959054516564e+00 1.610253726045774414e+01 -9.428451802785694502e-01 5.213965185236937749e+00 -9.428451802785694502e-01 8.493155657291017846e+00
6.199016651058283145e+00 1.151071878919845659e+01 1.169936351123245455e+00 1.151071878919845659e+01 1.262194001049279279e+01 -2.852853654627998115e+00 1.169936351123245455e+00 -2.852853654627998115e+00 -4.996110151718544223e+00
-8.196529386318522015e+00 2.409900113285187828e+00 -5.602511012208354124e+00 2.409900113285187828e+00 4.221511960642334027e-01 3.244479031995469054e+00 -5.602511012208354124e+00 3.244479031995469054e+00 -1.556942036288477382e+01
-1.139581103648988325e+01 -1.101276271997831557e+01 -2.230814238619966527e+00 -1.101276271997831557e+01 -4.580914766708680474e+00 -5.883322996722049059e-01 -2.230814238619966527e+00 -5.883322996722049059e-01 -3.056185902682429756e+01
7.127187014780017371e+00 -5.946241466486758220e+00 -7.650924169638193106e+00 -5.946241466486758220e+00 1.602425527971967867e+01 7.738442198344583356e-02 -7.650924169638193106e+00 7.738442198344583356e-02 9.562321095756486145e+00
-4.441596831014252622e+00 2.700024108526561051e+00 -2.997526339498078674e+00 2.700024108526561051e+00 -1.516983091805964179e+01 -2.013273200227093662e-01 -2.997526339498078674e+00 -2.013273200227093662e-01 -4.226000013971659541e+01
3.010418438710967592e+01 -9.358996783265665087e+00 -4.701073438817554795e+00 -9.358996783265665087e+00 2.161353301597180021e+01 2.208494624031676512e+00 -4.701073438817554795e+00 2.208494624031676512e+00 6.385047900897798279e+00
