-2.439120322199999862e+02
-2.444218315699999948e+02
-2.419653948499999956e+02
-2.414210720799999876e+02
-2.415435404700000106e+02
-2.430405566100000101e+02
-2.419225367399999982e+02
-2.425168118299999946e+02
-2.454051211899999885e+02
-2.424503401300000007e+02
-2.432520317899999895e+02
-2.417076020799999867e+02
-2.415136451200000067e+02
-2.434390566700000136e+02
-2.409689251300000024e+02
-2.420632606400000100e+02
-2.418017027100000007e+02
-2.427692098299999941e+02
-2.443840690799999891e+02
-2.448054934200000048e+02
-2.461736946000000046e+02
-2.435423469899999986e+02
-2.426570967799999892e+02
-2.406433643700000005e+02
-2.447388156199999969e+02
-2.417197651200000053e+02
-2.468139998000000048e+02
-2.442020383200000140e+02
-2.452592527900000050e+02
-2.440063943400000142e+02
-2.448211811300000136e+02
-2.427537600199999872e+02
-2.441368246799999895e+02
-2.422911292500000116e+02
-2.424008509999999887e+02
-2.422625655500000050e+02
-2.431662095599999986e+02
-2.443781275599999958e+02
-2.450734909599999867e+02
-2.457909932899999887e+02
-2.441439508299999943e+02
-2.453932088299999918e+02
-2.437973281900000018e+02
-2.418071329400000025e+02
-2.423146502499999997e+02
-2.436172893499999930e+02
-2.418540938900000015e+02
-2.448360823799999935e+02
-2.408917049599999984e+02
-2.435903001499999903e+02
