-9.571570000000000356e-01 -7.219889999999999919e-01 9.538349999999999884e-01 1.969945999999999975e+00 -2.581398000000000081e+00 -1.689410000000000078e-01 -2.745032999999999834e+00 -1.728161000000000058e+00 -9.962670000000000137e-01 -4.785389999999999922e-01 2.134830000000000061e-01 -8.346599999999999575e-01 2.758607000000000031e+00 -1.332170999999999994e+00 6.598939999999999806e-01 2.030371999999999844e+00 1.332395999999999914e+00 -1.729541999999999913e+00 5.389620000000000521e-01 -1.024889999999999968e-01 5.111379999999999812e-01 2.034981999999999847e+00 6.954380000000000006e-01 2.417469999999999897e-01 1.793540000000000134e-01 -1.230391999999999930e+00 -1.455926000000000053e+00 -9.290899999999999714e-01 1.260593000000000075e+00 4.337509999999999977e-01 1.089628000000000041e+00 1.160360000000000003e-01 -3.795259999999999745e-01 -6.309449999999999781e-01 -1.056148000000000087e+00 2.890900000000000067e-02 -9.987740000000000506e-01 2.460360000000000047e-01 -5.662469999999999448e-01 -8.181370000000000031e-01 -1.456069999999999864e-01 -2.140380000000000060e-01 -5.395910000000000428e-01 -8.221199999999999619e-01 2.176669999999999994e-01 7.217280000000000362e-01 3.187889999999999890e-01 -1.144444000000000017e+00 6.584889999999999910e-01 1.590948999999999947e+00 -3.293760000000000021e-01 2.564690000000000136e+00 -4.270700000000000190e-02 9.507170000000000343e-01 -5.569549999999999779e-01 1.074264000000000108e+00 -7.177210000000000534e-01 -1.771763999999999895e+00 -2.172419000000000100e+00 -1.689324999999999966e+00 5.027239999999999487e-01 9.491199999999999637e-02 5.181280000000000330e-01 5.725339999999999874e-01 1.386463000000000001e+00 1.342405000000000070e+00 -2.962499000000000215e+00 -2.852450000000000263e-01 7.322910000000000252e-01 1.373450999999999977e+00 8.611060000000000381e-01 2.905329999999999857e-01 -1.298777000000000070e+00 3.060399999999999926e-02 1.397996000000000016e+00 -9.044800000000000062e-02 1.283490999999999937e+00 1.628610000000000058e-01 3.322209999999999885e-01 5.221430000000000238e-01 -1.027028999999999970e+00 -1.775973999999999942e+00 -1.354206999999999939e+00 1.209541999999999895e+00 -1.122856999999999994e+00 7.508240000000000469e-01 -7.245430000000000481e-01 -1.098300000000000054e+00 5.465430000000000010e-01 6.807560000000000278e-01 1.447152999999999912e+00 1.250980999999999899e+00 1.645418000000000047e+00
-1.917729999999999990e-01 -1.283924000000000065e+00 5.346319999999999961e-01 -1.110962999999999923e+00 -6.668089999999999851e-01 -1.098589999999999955e+00 -2.314019999999999966e-01 8.747329999999999828e-01 -2.095410999999999913e+00 8.295019999999999616e-01 5.633960000000000079e-01 -1.617877999999999927e+00 1.640058000000000016e+00 -6.483470000000000066e-01 -6.879699999999999704e-01 3.143380000000000063e-01 2.078602000000000061e+00 -8.469219999999999526e-01 -9.589469999999999938e-01 -2.337660000000000016e-01 2.184939999999999938e-01 2.334990000000000121e-01 -2.294542999999999999e+00 -2.089372000000000007e+00 1.370589999999999975e+00 -1.774229000000000056e+00 1.532920000000000060e+00 -2.705460000000000087e-01 -4.550600000000000200e-01 -2.898209999999999953e-01 1.139793999999999974e+00 2.219304999999999861e+00 -9.593150000000000288e-01 5.506560000000000343e-01 -5.231810000000000072e-01 1.399900000000000033e-01 -1.008939000000000030e+00 -2.329680999999999891e+00 1.760742000000000029e+00 1.434056999999999915e+00 1.937820000000000098e+00 -4.698709999999999831e-01 -4.720969999999999889e-01 -2.774289999999999812e-01 -3.063999999999999883e-03 9.456170000000000408e-01 6.145310000000000494e-01 3.957729999999999859e-01 -7.513689999999999536e-01 -8.190469999999999695e-01 6.788070000000000492e-01 -1.535422000000000065e+00 1.806052999999999908e+00 7.297470000000000345e-01 -9.871560000000000334e-01 2.159692999999999863e+00 6.603149999999999853e-01 -1.675081000000000042e+00 2.062559999999999949e-01 1.925462999999999925e+00 4.745659999999999878e-01 6.850129999999999830e-01 -9.979919999999999902e-01 5.554000000000000048e-01 5.133290000000000353e-01 7.288620000000000099e-01 6.445579999999999643e-01 1.493854999999999933e+00 6.179449999999999665e-01 -1.041449999999999987e+00 -1.700579999999999981e+00 8.609010000000000273e-01 1.588859000000000021e+00 -3.101659999999999973e-01 8.062390000000000390e-01 -4.328020000000000200e-01 2.024110000000000076e-01 -5.342630000000000434e-01 2.822900000000000062e-02 -8.238450000000000495e-01 -4.401109999999999745e-01 -1.073361999999999927e+00 -1.444709999999999939e+00 1.133529999999999954e-01 1.118480000000000030e-01 5.336819999999999897e-01 -9.355120000000000102e-01 1.001718000000000108e+00 1.687629999999999963e-01 -2.792400000000000090e-02 -1.121980999999999895e+00 -4.721259999999999901e-01 1.389831999999999956e+00
-4.259618999999999822e+00 -2.006213999999999942e+00 6.636050000000000004e-01 -6.625280000000000058e-01 2.130342999999999876e+00 3.469700000000000006e-01 4.672769999999999979e-01 1.585393999999999970e+00 -8.923060000000000436e-01 1.892250000000000043e-01 -1.958677000000000001e+00 7.393399999999999972e-02 -1.124840000000000007e-01 -1.910214999999999996e+00 -3.281169999999999920e-01 -1.092961999999999989e+00 -4.566660000000000164e-01 1.955662999999999929e+00 3.190192000000000139e+00 -1.454328999999999983e+00 -3.956649999999999889e-01 -2.341308999999999862e+00 1.603029999999999955e+00 2.485758999999999830e+00 1.320551000000000030e+00 2.583470000000000155e+00 -2.290398999999999852e+00 1.148984999999999923e+00 2.718099999999999961e-01 -3.159350000000000214e-01 3.781559999999999921e-01 7.434979999999999922e-01 1.283743999999999996e+00 2.615610999999999908e+00 1.087112999999999996e+00 -7.907999999999999752e-02 -1.696425000000000072e+00 -4.783680000000000154e-01 -8.537930000000000241e-01 -2.971170000000000200e-01 1.130252999999999952e+00 1.798029000000000099e+00 1.426365000000000105e+00 6.412440000000000362e-01 -8.472939999999999916e-01 1.024307999999999996e+00 -2.080410999999999788e+00 2.130907000000000107e+00 1.370994999999999964e+00 -1.054044999999999899e+00 -1.016393000000000102e+00 -1.050607999999999986e+00 -7.659150000000000125e-01 -1.078940000000000038e-01 3.735530000000000239e-01 3.970139999999999780e-01 -1.120410000000000017e-01 1.063670000000000032e-01 -1.209934000000000065e+00 -4.890669999999999740e-01 -2.027220999999999940e+00 -3.338010000000000144e-01 2.134882999999999864e+00 -9.263470000000000315e-01 -9.982820000000000027e-01 -4.022294999999999732e+00 -6.830340000000000300e-01 -1.084556999999999993e+00 -9.483030000000000070e-01 1.595080000000000053e+00 1.376924000000000037e+00 3.069370000000000154e-01 -5.727290000000000436e-01 2.752180000000000182e-01 -2.188108999999999860e+00 1.822214999999999918e+00 -1.976660000000000084e-01 -1.178650999999999893e+00 -1.805325999999999986e+00 -7.581430000000000113e-01 -1.286105999999999971e+00 2.437291999999999792e+00 3.127575999999999912e+00 2.011464999999999836e+00 3.920409999999999728e-01 1.547490000000000032e+00 1.805752999999999941e+00 -1.972042000000000073e+00 -3.450131999999999977e+00 -4.090610000000000079e-01 -3.584609999999999741e-01 1.696976000000000040e+00 7.628580000000000361e-01
-2.512338000000000182e+00 -2.380289999999999906e-01 -1.637583000000000011e+00 -1.648733000000000004e+00 4.014216000000000228e+00 -3.713543000000000038e+00 3.310688999999999993e+00 -1.883439000000000085e+00 -2.927199999999999802e-01 4.393540000000000223e-01 7.086099999999999621e-01 1.223569999999999935e-01 2.097150000000000070e+00 -1.469862999999999920e+00 -1.176406000000000063e+00 -1.784694999999999920e+00 2.074781000000000208e+00 -1.027292000000000094e+00 1.517296999999999896e+00 -1.507371000000000016e+00 -7.922280000000000433e-01 -2.562610000000000166e-01 -2.173973999999999851e+00 -6.175450000000000106e-01 -1.617439999999999989e+00 1.330270999999999981e+00 3.326623000000000108e+00 -1.540874000000000077e+00 -7.421060000000000434e-01 7.067339999999999733e-01 -4.294229999999999992e-01 -1.598643999999999954e+00 1.050610000000000044e+00 -3.160001999999999978e+00 -1.657569999999999988e+00 -3.359757999999999800e+00 6.430449999999999777e-01 -4.919910000000000116e-01 3.046094000000000079e+00 2.020550000000000124e-01 -1.412654999999999994e+00 5.559359999999999857e-01 -7.108379999999999699e-01 -2.396072000000000202e+00 2.385454000000000185e+00 2.793706999999999940e+00 -1.971894999999999953e+00 7.257369999999999655e-01 1.393445000000000045e+00 3.813739999999999908e-01 4.592390000000000083e-01 -1.468356999999999912e+00 2.727933000000000163e+00 1.192606000000000055e+00 -9.057900000000000673e-02 9.113289999999999447e-01 -1.202550000000000008e+00 4.742109999999999936e-01 -4.676199999999999801e-01 3.626933999999999880e+00 -7.299590000000000245e-01 2.874600000000000072e-02 -1.126422999999999952e+00 2.112483999999999806e+00 4.087424999999999642e+00 5.931969999999999743e-01 1.526475999999999944e+00 2.099483999999999906e+00 -2.230293000000000081e+00 -2.974700000000000122e-01 1.327234000000000025e+00 -1.439100000000000101e-01 2.186763000000000012e+00 1.375780000000000058e-01 -8.888190000000000257e-01 -2.724762999999999824e+00 7.946739999999999915e-01 -1.126171999999999951e+00 -1.388671999999999906e+00 -4.226403000000000354e+00 -3.006130000000000191e-01 -3.656409999999999938e-01 1.553754999999999997e+00 -4.465390000000000192e-01 2.525549999999999740e-01 1.005676999999999932e+00 1.661680999999999964e+00 1.467980999999999980e+00 -2.626260000000000261e-01 9.866700000000000470e-02 3.088339999999999974e-01 -6.828279999999999905e-01 5.305260000000000531e-01
-1.704485999999999946e+00 1.648951000000000056e+00 -1.832016000000000089e+00 -1.252299999999999941e-02 8.967169999999999863e-01 8.206930000000000058e-01 -7.120610000000000550e-01 -2.159088999999999814e+00 -7.440210000000000434e-01 1.105458999999999969e+00 5.684409999999999741e-01 8.298020000000000396e-01 2.002018000000000075e+00 -1.189970000000000055e-01 4.860167999999999822e+00 -7.743010000000000170e-01 2.479270999999999781e+00 1.662619999999999931e-01 -7.660970000000000280e-01 2.512458000000000080e+00 6.702479999999999549e-01 -1.387224000000000013e+00 -1.522307999999999995e+00 1.275257000000000085e+00 1.418310000000000126e-01 1.707325999999999899e+00 -1.162762999999999991e+00 -3.018540000000000112e-01 -4.731480000000000130e-01 -8.436780000000000390e-01 -5.523169999999999469e-01 2.176069999999999949e-01 -2.401362999999999914e+00 2.509796999999999834e+00 -1.691360000000000086e-01 1.134600000000000053e+00 3.110000000000000243e-04 -2.317510000000000125e-01 9.844610000000000305e-01 1.034826999999999941e+00 3.368760000000000088e-01 1.124265999999999988e+00 1.421520000000000006e-01 -1.011798999999999893e+00 3.483138999999999985e+00 1.181302000000000074e+00 -2.124489999999999990e-01 -6.096270000000000300e-01 1.810241999999999907e+00 -1.728353000000000028e+00 -7.201269999999999616e-01 -1.323185999999999973e+00 1.595877999999999908e+00 1.894586000000000103e+00 -2.453183000000000114e+00 2.328119999999999912e-01 -1.120978000000000030e+00 -1.071484000000000103e+00 -1.187599999999999940e-02 -2.793730000000000047e+00 7.798399999999999777e-02 8.057400000000000673e-02 1.307406999999999986e+00 -1.868839999999999946e-01 7.162619999999999543e-01 2.541340000000000265e-01 1.565687999999999969e+00 1.685769999999999991e+00 -4.479389999999999761e-01 1.808275000000000077e+00 1.108095000000000052e+00 9.273069999999999924e-01 5.782030000000000225e-01 -7.675659999999999705e-01 -5.095299999999999829e-02 2.057701999999999920e+00 -9.296560000000000379e-01 1.089528999999999970e+00 -3.855330000000000146e-01 -2.116877000000000120e+00 -5.804169999999999607e-01 -2.340198000000000000e+00 -1.176309000000000049e+00 -4.567080000000000028e-01 -9.460990000000000233e-01 4.478650000000000131e-01 -1.333407999999999927e+00 -9.746369999999999756e-01 -2.241201999999999916e+00 -3.132416999999999785e+00 -1.237250000000000016e-01 -1.364389000000000074e+00 -2.591714000000000073e+00
-6.435149999999999482e-01 6.528080000000000549e-01 -6.222870000000000346e-01 -1.595040000000000069e-01 6.708910000000000151e-01 -1.809000000000000052e-01 -7.742440000000000433e-01 1.376930000000000098e-01 1.017052999999999985e+00 5.958849999999999980e-01 2.567772999999999861e+00 6.481350000000000167e-01 2.725741999999999887e+00 -3.061441999999999997e+00 3.223340000000000094e-01 3.827735999999999805e+00 -1.508353999999999973e+00 -4.748539999999999983e-01 1.072410000000000030e-01 -4.912940000000000085e-01 -8.694699999999999651e-01 1.225622999999999907e+00 -2.502739999999999965e-01 -1.536523000000000083e+00 1.152738999999999958e+00 1.374700000000000054e-02 1.452957999999999972e+00 1.898295999999999983e+00 6.411700000000000177e-01 8.348950000000000538e-01 -1.295900999999999970e+00 1.916352999999999973e+00 -9.211589999999999501e-01 2.855786999999999853e+00 1.426015000000000033e+00 1.679240999999999984e+00 6.175380000000000313e-01 1.756240000000000023e-01 5.997280000000000388e-01 -1.410843999999999987e+00 -1.206760999999999973e+00 -7.978490000000000304e-01 1.780060999999999893e+00 1.437559000000000031e+00 -1.915680999999999967e+00 -2.659558999999999784e+00 -3.209626000000000090e+00 1.983155999999999919e+00 -2.253642999999999841e+00 -9.483679999999999888e-01 -1.056276999999999910e+00 -3.679939999999999878e-01 1.916150999999999938e+00 -6.572440000000000504e-01 4.795789999999999775e-01 -1.257228999999999930e+00 2.872219999999999773e-01 -8.254040000000000266e-01 -8.878470000000000528e-01 8.275379999999999958e-01 -4.902250000000000218e-01 -1.404371000000000036e+00 1.699070000000000080e+00 -2.579763999999999946e+00 -1.633419999999999872e-01 5.900450000000000417e-01 -4.396889999999999965e-01 5.255729999999999569e-01 -1.449578000000000033e+00 -4.989359999999999906e-01 2.201741000000000170e+00 -2.427671999999999830e+00 2.989620000000000055e-01 -6.481970000000000232e-01 1.486490000000000034e-01 1.099952000000000041e+00 -2.884478000000000097e+00 4.953620000000000245e-01 2.210078000000000209e+00 -8.221760000000000179e-01 1.056043000000000065e+00 -1.614265999999999979e+00 2.432255000000000056e+00 -6.377410000000000023e-01 1.416638999999999982e+00 -8.196510000000000185e-01 -2.526171000000000166e+00 -4.483272999999999620e+00 1.670792999999999973e+00 1.204447999999999963e+00 -1.795096000000000025e+00 1.177264000000000088e+00 1.227527999999999953e+00
-4.194543000000000355e+00 -2.966378999999999877e+00 -1.857885000000000009e+00 -1.741306999999999938e+00 -1.899817000000000089e+00 7.499230000000000063e-01 -3.344110000000000138e-01 2.846870000000000234e-01 -5.837729999999999864e-01 -1.039679000000000020e+00 -6.061959999999999571e-01 -1.278350000000000097e+00 1.557379999999999987e+00 6.062560000000000171e-01 1.319029999999999925e-01 3.421707000000000054e+00 -3.725709999999999855e-01 -3.368154000000000092e+00 5.636160000000000059e-01 -6.775339999999999696e-01 -2.532830000000000137e+00 -1.814926999999999957e+00 2.156911000000000023e+00 3.202780000000000071e-01 7.380409999999999471e-01 -3.130160000000000164e-01 9.760839999999999517e-01 -5.205020000000000202e-01 -1.157982999999999985e+00 3.117510000000000003e-01 1.246682000000000068e+00 2.175040999999999780e+00 3.232388999999999957e+00 -6.882420000000000204e-01 -1.215314999999999923e+00 2.918430000000000191e-01 2.134709999999999941e-01 -1.195991000000000026e+00 7.852580000000000116e-01 -1.062869999999999981e+00 8.996809999999999530e-01 -1.219200000000000006e-01 6.911899999999999988e-02 9.726700000000000623e-02 1.076802999999999955e+00 3.649687000000000126e+00 -2.153354000000000212e+00 1.555226999999999915e+00 8.546890000000000320e-01 9.063350000000000017e-01 -4.010210000000000163e-01 2.352720000000000089e-01 1.560686000000000018e+00 -8.378919999999999702e-01 -1.136050000000000004e+00 4.460310000000000108e-01 -6.156509999999999483e-01 -6.371890000000000054e-01 -1.792756000000000016e+00 7.536509999999999598e-01 -1.460104999999999986e+00 1.810513999999999957e+00 8.157090000000000174e-01 2.103730000000000044e-01 1.700941999999999954e+00 8.144400000000000528e-01 -1.169542999999999999e+00 -1.894770000000000065e-01 4.938000000000000167e-01 2.075969000000000175e+00 3.046800000000000064e-01 -9.745340000000000114e-01 1.368532000000000082e+00 -1.492772999999999906e+00 2.659200000000000105e-02 -2.200444000000000067e+00 2.111570000000000114e-01 -1.059768999999999961e+00 1.632133999999999974e+00 1.041063000000000072e+00 1.279679999999999929e+00 1.805849000000000038e+00 1.826934999999999976e+00 1.653650000000000120e-01 5.579499999999999738e-02 5.531869999999999843e-01 -3.989899999999999697e-02 -2.120388999999999857e+00 -7.036799999999999722e-01 9.067300000000000360e-02 4.218839999999999812e-01 1.554689999999999961e-01 -1.996920000000000084e-01
8.429400000000000226e-01 3.408260000000000178e-01 -3.405899999999999900e-02 2.101510000000000045e-01 3.178449999999999886e-01 1.520246999999999904e+00 -6.837199999999999944e-01 1.766972999999999905e+00 -9.795019999999999838e-01 3.792139999999999955e-01 1.019280000000000047e-01 -1.164720000000000061e-01 2.703994999999999926e+00 -1.746989999999999932e-01 -1.106289999999999996e+00 -8.255609999999999893e-01 -1.419140999999999986e+00 -1.263350999999999891e+00 3.030400000000000107e-02 -1.072960000000000025e-01 1.424525999999999959e+00 -7.133859999999999646e-01 -2.741299000000000152e+00 -7.509000000000000397e-02 -6.039269999999999916e-01 4.233250000000000068e-01 -1.005306999999999951e+00 6.127879999999999994e-01 1.886582999999999899e+00 2.739449999999999941e-01 1.420331000000000010e+00 1.262704000000000049e+00 -1.233041000000000054e+00 1.797414999999999985e+00 -6.636710000000000109e-01 -1.772380000000000067e-01 -4.373099999999999765e-01 6.651989999999999847e-01 1.162539999999999907e+00 7.876739999999999853e-01 2.252876999999999796e+00 2.608327000000000062e+00 -1.563460000000000127e-01 -2.258340000000000070e-01 2.670930000000000248e-01 -1.816523000000000110e+00 -2.034396000000000093e+00 -7.887530000000000374e-01 2.982609999999999983e-01 -3.271310000000000051e-01 -2.470690000000000108e-01 -2.335677000000000003e+00 1.921113000000000071e+00 -1.929999000000000020e+00 6.238799999999999901e-02 -1.611491999999999924e+00 2.266116999999999937e+00 -1.082084999999999964e+00 1.051002999999999910e+00 -1.053825000000000012e+00 9.521680000000000144e-01 9.815580000000000416e-01 6.041910000000000336e-01 1.352497000000000060e+00 1.415009999999999879e-01 2.061860000000000082e-01 -2.759405000000000108e+00 -5.206659999999999622e-01 3.068716000000000221e+00 3.296339999999999826e-01 -2.892929999999999779e+00 7.519930000000000225e-01 2.220560000000000034e-01 1.211167000000000105e+00 1.323252000000000095e+00 3.268789999999999751e-01 -1.805740000000000123e-01 -2.918209999999999971e-01 7.587549999999999573e-01 -7.408439999999999470e-01 -1.939103000000000021e+00 -1.188109000000000082e+00 -6.832120000000000415e-01 -2.746167999999999942e+00 -7.301149999999999585e-01 2.847750000000000004e-01 5.200289999999999635e-01 3.353840000000000154e-01 1.396549000000000040e+00 4.851779999999999982e-01 -9.067100000000000160e-02 -1.682739999999999903e+00 -1.495251000000000108e+00
1.053827000000000069e+00 9.494040000000000257e-01 -3.830620000000000136e-01 -1.433221000000000078e+00 -8.843600000000000072e-02 -1.575296999999999947e+00 2.933029999999999804e-01 1.469429999999999903e-01 -6.502890000000000059e-01 -3.104399999999999868e-02 -9.878440000000000554e-01 -1.614131999999999900e+00 -8.147940000000000182e-01 -4.406680000000000041e-01 5.623519999999999630e-01 -4.914589999999999792e-01 -9.602600000000000025e-02 1.032249999999999890e+00 3.730089999999999795e-01 -6.566980000000000040e-01 -1.215090000000000059e-01 -2.944000000000000089e-02 -6.196570000000000134e-01 -3.374139999999999917e-01 4.278370000000000228e-01 1.252202000000000037e+00 1.967152999999999929e+00 -9.574810000000000265e-01 -3.747969999999999913e-01 -1.262623000000000051e+00 -6.837779999999999969e-01 9.018559999999999910e-01 1.706000000000000051e-03 -1.523773000000000044e+00 1.575226999999999933e+00 -1.744380000000000042e+00 -6.561519999999999575e-01 1.004898999999999987e+00 -1.246226999999999974e+00 -4.158819999999999739e-01 -2.010160000000000002e-01 1.994660000000000044e-01 -2.135008000000000017e+00 1.130311999999999983e+00 -1.482841999999999993e+00 4.262119999999999798e-01 1.499463999999999908e+00 5.348760000000000181e-01 -1.004828000000000054e+00 -1.993246999999999991e+00 7.486369999999999969e-01 1.094279000000000002e+00 8.628959999999999964e-01 -2.367209999999999870e-01 1.985899999999999888e-01 -1.982391000000000014e+00 -3.132579999999999809e-01 1.055816000000000088e+00 -1.337785000000000002e+00 6.468829999999999858e-01 9.548799999999999510e-01 5.533899999999999930e-02 2.585120000000000196e-01 3.116439999999999766e-01 -1.057558999999999916e+00 1.134900999999999938e+00 2.903545999999999960e+00 -3.371680000000000232e-01 -1.810670000000000057e-01 -1.286894999999999900e+00 -6.203370000000000273e-01 -1.695842999999999989e+00 3.003279999999999839e-01 8.354500000000000259e-01 6.871549999999999603e-01 -6.180179999999999563e-01 -9.455599999999999561e-01 -7.329400000000000359e-01 1.535412999999999917e+00 -2.242580000000000129e-01 1.159894999999999898e+00 8.936979999999999924e-01 3.224310000000000231e-01 -1.379999999999999933e-03 8.690020000000000522e-01 -4.230400000000000132e-02 2.230074999999999807e+00 8.894239999999999924e-01 3.767840000000000078e-01 6.233940000000000037e-01 -1.499034999999999895e+00 1.092541999999999902e+00 1.791727999999999987e+00
-9.133099999999999552e-02 -8.068130000000000024e-01 -6.508249999999999869e-01 4.069559999999999844e-01 -1.903900000000000037e-02 -2.146329000000000153e+00 2.087980000000000114e-01 6.129630000000000356e-01 -1.296289999999999942e-01 -1.150433000000000039e+00 -6.993669999999999609e-01 -1.351960999999999968e+00 -4.497749999999999804e-01 1.393383000000000038e+00 1.650163999999999964e+00 -7.390120000000000022e-01 -1.723618000000000094e+00 -8.431020000000000181e-01 4.057930000000000148e-01 -2.225249999999999950e+00 -2.301791000000000142e+00 -3.964081999999999883e+00 2.811490000000000045e+00 2.247439999999999993e-01 -9.188110000000000444e-01 -9.282479999999999620e-01 2.440620000000000012e-01 3.366080999999999879e+00 -5.329329999999999901e-01 -1.261068000000000078e+00 -1.044607999999999981e+00 3.601400000000000157e-01 -1.028137999999999996e+00 -7.786500000000000365e-02 1.826133000000000006e+00 2.479354999999999976e+00 1.302169999999999994e-01 4.176250000000000240e-01 4.359703999999999802e+00 -4.060073000000000043e+00 2.968649000000000093e+00 -1.737720000000000098e-01 -2.077500000000000124e+00 2.026441000000000159e+00 1.295245999999999897e+00 1.002979999999999983e+00 -1.611315000000000053e+00 4.933330000000000215e-01 1.513390000000000013e-01 6.192290000000000294e-01 6.949710000000000054e-01 -1.923020000000000007e-01 -1.275390000000000135e-01 9.796709999999999585e-01 1.353650000000000131e-01 -2.226170000000000204e+00 -4.161900000000000321e-02 3.063747999999999916e+00 -1.501204999999999901e+00 -1.508294999999999941e+00 1.875989999999999880e-01 1.234299999999999953e+00 5.926479999999999526e-01 1.711656000000000066e+00 -2.274967999999999879e+00 1.710480000000000000e+00 2.602151000000000103e+00 -2.960796999999999901e+00 1.212240999999999902e+00 -3.476969999999999783e-01 4.338498000000000410e+00 5.132870000000000488e-01 1.345439999999999969e-01 8.733250000000000179e-01 3.685450000000000115e-01 2.642361999999999878e+00 -1.716050000000000075e+00 -7.009269999999999667e-01 2.352470000000000117e-01 3.404269999999999796e-01 7.008389999999999898e-01 9.740200000000000247e-02 -7.939200000000000423e-02 -1.242183000000000037e+00 1.570159000000000082e+00 2.113831999999999933e+00 -1.998655000000000070e+00 -2.147968000000000099e+00 -2.238723999999999936e+00 -2.376989000000000019e+00 -7.909429999999999517e-01 -2.650069999999999926e-01 2.359910000000000063e-01
-5.460690000000000266e-01 -2.220759999999999956e-01 2.486867000000000161e+00 -1.175772999999999957e+00 -1.894281000000000104e+00 -1.696729999999999905e-01 -7.653090000000000170e-01 -3.800229999999999997e-01 4.605469999999999842e-01 -4.486099999999999810e-02 5.798670000000000213e-01 1.463576999999999906e+00 4.432590000000000141e-01 1.446630000000000138e-01 1.626970000000000083e-01 -9.911809999999999787e-01 -5.650700000000000167e-02 -1.867489999999999983e-01 5.650490000000000235e-01 3.761029000000000178e+00 -1.628136000000000028e+00 9.740870000000000362e-01 -4.814269999999999938e-01 -2.681359999999999855e-01 3.563540000000000041e-01 5.482409999999999783e-01 8.255280000000000395e-01 -8.900000000000000133e-01 -1.721949999999999870e-01 -1.024521000000000015e+00 1.050783000000000023e+00 3.294211999999999918e+00 -4.044369999999999910e-01 -4.542370000000000019e-01 -6.257779999999999454e-01 -4.969200000000000006e-02 1.879825000000000079e+00 2.118609000000000187e+00 -1.364786999999999972e+00 4.077140000000000208e-01 -9.710830000000000295e-01 -6.848090000000000011e-01 3.139069999999999916e-01 1.205340000000000023e-01 -1.256831000000000031e+00 8.414479999999999738e-01 9.693410000000000082e-01 -3.400546999999999986e+00 -1.882482999999999906e+00 -5.308300000000000241e-01 7.449189999999999978e-01 2.110628999999999866e+00 2.605542999999999942e+00 -9.555050000000000487e-01 7.248769999999999936e-01 -2.727892000000000206e+00 3.848320000000000074e-01 -7.283129999999999882e-01 -1.487149000000000054e+00 1.264672999999999936e+00 7.634849999999999692e-01 -3.184890000000000221e-01 -6.764199999999999380e-02 -2.258941000000000088e+00 1.080202000000000107e+00 -4.808270000000000044e-01 -2.383202999999999960e+00 -2.105770999999999837e+00 2.344208000000000069e+00 1.171210000000000084e+00 -1.557015999999999956e+00 8.958150000000000279e-01 4.407989999999999964e-01 3.176099999999999757e-02 -1.331309000000000076e+00 1.367466000000000070e+00 1.320988999999999969e+00 -1.587959999999999927e-01 -1.365153999999999979e+00 -1.136309999999999959e-01 1.039131000000000027e+00 -5.307169999999999943e-01 -1.341995000000000049e+00 3.442600000000000104e-01 1.962160000000000015e-01 -9.347309999999999786e-01 1.177221999999999991e+00 -3.498839999999999728e-01 9.729630000000000223e-01 -6.619509999999999561e-01 7.590170000000000528e-01 -1.627081999999999917e+00 5.000719999999999610e-01
-3.576369999999999827e-01 -7.581769999999999898e-01 -1.928536000000000028e+00 8.488500000000000212e-02 2.267768999999999924e+00 1.207157000000000036e+00 7.112770000000000481e-01 -2.195844999999999825e+00 1.304450000000000054e-01 1.307139000000000051e+00 -1.038629999999999970e-01 1.937623000000000095e+00 -5.464369999999999505e-01 1.259322000000000052e+00 1.982804000000000011e+00 -2.817209999999999992e-01 9.193999999999999395e-02 9.658219999999999583e-01 -7.572099999999999664e-02 1.128350000000000047e-01 -1.100846999999999909e+00 7.631829999999999448e-01 -2.433104000000000156e+00 -1.070893000000000095e+00 -8.374759999999999982e-01 -8.303869999999999862e-01 -2.361873000000000111e+00 4.596540000000000070e-01 -7.311199999999999921e-01 6.235619999999999497e-01 -4.899963999999999764e+00 3.123124999999999929e+00 -2.433464999999999989e+00 -7.641250000000000542e-01 8.311460000000000514e-01 1.903029999999999999e-01 2.459798000000000151e+00 7.688709999999999711e-01 2.284609999999999974e-01 4.923290000000000166e-01 -2.692175000000000207e+00 -3.609620000000000051e-01 -1.108549000000000007e+00 1.642171999999999965e+00 -2.681274999999999853e+00 -1.154854000000000047e+00 1.706504999999999939e+00 1.017573999999999979e+00 -2.054110000000000102e-01 4.359700000000000242e-01 -1.132077000000000000e+00 2.229941999999999869e+00 8.806619999999999449e-01 -7.560200000000000253e-01 4.880281000000000091e+00 -2.476481999999999850e+00 3.606037000000000159e+00 -1.869626000000000010e+00 9.548809999999999798e-01 -1.952258000000000049e+00 -2.992619999999999725e-01 -9.827399999999999469e-01 2.345160000000000022e-01 -1.654614999999999947e+00 -1.209367000000000081e+00 -6.187390000000000390e-01 -1.871328000000000102e+00 -1.750737999999999905e+00 1.845825000000000049e+00 1.636141000000000068e+00 -5.979899999999999799e-02 1.311908000000000074e+00 -5.680939999999999879e-01 3.093090000000000006e-01 -2.449870000000000103e-01 -1.605736000000000052e+00 2.798087999999999909e+00 2.154760000000000009e+00 -8.532499999999999807e-02 1.635479999999999989e-01 -4.506729999999999903e-01 1.370079999999999909e-01 1.792820999999999998e+00 -2.745819999999999927e-01 4.571899999999999853e-01 -9.251500000000000001e-02 -1.143753000000000020e+00 2.815853999999999857e+00 -1.617811000000000110e+00 5.041839999999999655e-01 -2.487989999999999924e-01 -1.204843000000000108e+00 5.699589999999999934e-01