6.231028150000289756e+00 1.300879976656723238e-22 0.000000000000000000e+00 -4.673265081827109313e+00 8.094345324998537095e+00 0.000000000000000000e+00 0.000000000000000000e+00 0.000000000000000000e+00 7.794730050000000077e+00
6.231028150000289756e+00 1.300879976656723238e-22 0.000000000000000000e+00 -4.673265081827109313e+00 8.094345324998537095e+00 0.000000000000000000e+00 0.000000000000000000e+00 0.000000000000000000e+00 7.794730050000000077e+00
6.346123080999999999e+00 0.000000000000000000e+00 0.000000000000000000e+00 -4.932587389000000044e+00 8.288473521000000233e+00 0.000000000000000000e+00 -1.938332010000000105e-01 -2.132512550000000007e-01 8.023374914999999774e+00
6.346123080999999999e+00 0.000000000000000000e+00 0.000000000000000000e+00 -4.932587389000000044e+00 8.288473521000000233e+00 0.000000000000000000e+00 -1.938332010000000105e-01 -2.132512550000000007e-01 8.023374914999999774e+00
6.190435963999999736e+00 0.000000000000000000e+00 0.000000000000000000e+00 -4.658135093000000282e+00 8.275430377999999365e+00 0.000000000000000000e+00 -1.152156440000000059e-01 1.506379049999999886e-01 7.627377178999999785e+00
6.190435963999999736e+00 0.000000000000000000e+00 0.000000000000000000e+00 -4.658135093000000282e+00 8.275430377999999365e+00 0.000000000000000000e+00 -1.152156440000000059e-01 1.506379049999999886e-01 7.627377178999999785e+00
6.319542322000000212e+00 0.000000000000000000e+00 0.000000000000000000e+00 -4.603991600999999712e+00 8.217036076999999494e+00 0.000000000000000000e+00 1.548918870000000059e-01 -1.842705749999999920e-01 7.963547001000000236e+00
6.319542322000000212e+00 0.000000000000000000e+00 0.000000000000000000e+00 -4.603991600999999712e+00 8.217036076999999494e+00 0.000000000000000000e+00 1.548918870000000059e-01 -1.842705749999999920e-01 7.963547001000000236e+00
6.200263997999999610e+00 0.000000000000000000e+00 0.000000000000000000e+00 -4.683587303999999563e+00 8.266622917999999487e+00 0.000000000000000000e+00 2.439944800000000066e-02 3.169844299999999976e-02 7.811108940999999639e+00
6.200263997999999610e+00 0.000000000000000000e+00 0.000000000000000000e+00 -4.683587303999999563e+00 8.266622917999999487e+00 0.000000000000000000e+00 2.439944800000000066e-02 3.169844299999999976e-02 7.811108940999999639e+00
6.390946739000000321e+00 0.000000000000000000e+00 0.000000000000000000e+00 -4.686248200999999725e+00 7.858553846000000398e+00 0.000000000000000000e+00 4.896803400000000056e-02 -1.411988550000000120e-01 7.869938838000000381e+00
6.390946739000000321e+00 0.000000000000000000e+00 0.000000000000000000e+00 -4.686248200999999725e+00 7.858553846000000398e+00 0.000000000000000000e+00 4.896803400000000056e-02 -1.411988550000000120e-01 7.869938838000000381e+00
6.272508896999999806e+00 0.000000000000000000e+00 0.000000000000000000e+00 -4.627091661999999772e+00 7.885567457999999696e+00 0.000000000000000000e+00 -8.583863999999999383e-02 -3.156199400000000294e-02 7.711274151999999660e+00
6.272508896999999806e+00 0.000000000000000000e+00 0.000000000000000000e+00 -4.627091661999999772e+00 7.885567457999999696e+00 0.000000000000000000e+00 -8.583863999999999383e-02 -3.156199400000000294e-02 7.711274151999999660e+00
6.181307956999999575e+00 0.000000000000000000e+00 0.000000000000000000e+00 -4.663930242000000170e+00 8.002779674999999315e+00 0.000000000000000000e+00 1.412271790000000082e-01 -3.916918999999999956e-02 7.887638628000000374e+00
6.181307956999999575e+00 0.000000000000000000e+00 0.000000000000000000e+00 -4.663930242000000170e+00 8.002779674999999315e+00 0.000000000000000000e+00 1.412271790000000082e-01 -3.916918999999999956e-02 7.887638628000000374e+00
6.346803515999999590e+00 0.000000000000000000e+00 0.000000000000000000e+00 -4.677676396999999930e+00 8.315334028000000544e+00 0.000000000000000000e+00 5.216994800000000071e-02 -2.768045200000000122e-02 8.006357745000000747e+00
6.346803515999999590e+00 0.000000000000000000e+00 0.000000000000000000e+00 -4.677676396999999930e+00 8.315334028000000544e+00 0.000000000000000000e+00 5.216994800000000071e-02 -2.768045200000000122e-02 8.006357745000000747e+00
6.327883844999999674e+00 0.000000000000000000e+00 0.000000000000000000e+00 -4.824624013000000211e+00 8.318450515000000323e+00 0.000000000000000000e+00 -2.135045959999999909e-01 2.076755469999999881e-01 7.816035965000000196e+00
6.327883844999999674e+00 0.000000000000000000e+00 0.000000000000000000e+00 -4.824624013000000211e+00 8.318450515000000323e+00 0.000000000000000000e+00 -2.135045959999999909e-01 2.076755469999999881e-01 7.816035965000000196e+00
6.128604623000000196e+00 0.000000000000000000e+00 0.000000000000000000e+00 -4.645295242999999630e+00 8.250045598999999896e+00 0.000000000000000000e+00 -1.806982799999999958e-02 -1.158732950000000012e-01 8.011828831000000761e+00
6.128604623000000196e+00 0.000000000000000000e+00 0.000000000000000000e+00 -4.645295242999999630e+00 8.250045598999999896e+00 0.000000000000000000e+00 -1.806982799999999958e-02 -1.158732950000000012e-01 8.011828831000000761e+00
6.201279697000000368e+00 0.000000000000000000e+00 0.000000000000000000e+00 -4.607308809000000061e+00 8.106355244999999599e+00 0.000000000000000000e+00 1.219618420000000009e-01 -1.360768649999999913e-01 7.683296288000000196e+00
6.201279697000000368e+00 0.000000000000000000e+00 0.000000000000000000e+00 -4.607308809000000061e+00 8.106355244999999599e+00 0.000000000000000000e+00 1.219618420000000009e-01 -1.360768649999999913e-01 7.683296288000000196e+00
6.411985635999999822e+00 0.000000000000000000e+00 0.000000000000000000e+00 -4.815397541000000281e+00 8.030545933999999164e+00 0.000000000000000000e+00 1.419937649999999940e-01 -7.365645199999999726e-02 7.809387571000000250e+00
6.411985635999999822e+00 0.000000000000000000e+00 0.000000000000000000e+00 -4.815397541000000281e+00 8.030545933999999164e+00 0.000000000000000000e+00 1.419937649999999940e-01 -7.365645199999999726e-02 7.809387571000000250e+00
6.163756985000000022e+00 0.000000000000000000e+00 0.000000000000000000e+00 -4.835165646000000095e+00 7.962323829999999880e+00 0.000000000000000000e+00 1.954131640000000003e-01 -1.838932229999999945e-01 7.602264817000000008e+00
6.163756985000000022e+00 0.000000000000000000e+00 0.000000000000000000e+00 -4.835165646000000095e+00 7.962323829999999880e+00 0.000000000000000000e+00 1.954131640000000003e-01 -1.838932229999999945e-01 7.602264817000000008e+00
6.300478073999999928e+00 0.000000000000000000e+00 0.000000000000000000e+00 -4.556048545000000338e+00 7.911711888000000137e+00 0.000000000000000000e+00 -1.672386529999999871e-01 2.073587580000000041e-01 7.756855737999999612e+00
6.300478073999999928e+00 0.000000000000000000e+00 0.000000000000000000e+00 -4.556048545000000338e+00 7.911711888000000137e+00 0.000000000000000000e+00 -1.672386529999999871e-01 2.073587580000000041e-01 7.756855737999999612e+00
6.418006409000000190e+00 0.000000000000000000e+00 0.000000000000000000e+00 -4.821594937999999608e+00 8.226267330000000655e+00 0.000000000000000000e+00 -1.764520059999999946e-01 -1.625236610000000137e-01 7.998145898999999837e+00
6.418006409000000190e+00 0.000000000000000000e+00 0.000000000000000000e+00 -4.821594937999999608e+00 8.226267330000000655e+00 0.000000000000000000e+00 -1.764520059999999946e-01 -1.625236610000000137e-01 7.998145898999999837e+00
6.061350434999999592e+00 0.000000000000000000e+00 0.000000000000000000e+00 -4.314036960000000143e+00 8.173515331999999134e+00 0.000000000000000000e+00 1.882599450000000119e-01 1.317298379999999880e-01 7.779439025000000285e+00
6.061350434999999592e+00 0.000000000000000000e+00 0.000000000000000000e+00 -4.314036960000000143e+00 8.173515331999999134e+00 0.000000000000000000e+00 1.882599450000000119e-01 1.317298379999999880e-01 7.779439025000000285e+00
6.284486777999999774e+00 0.000000000000000000e+00 0.000000000000000000e+00 -4.495149514999999596e+00 8.121775142000000614e+00 0.000000000000000000e+00 9.847622999999999793e-03 9.290516599999999736e-02 7.872201449000000295e+00
6.284486777999999774e+00 0.000000000000000000e+00 0.000000000000000000e+00 -4.495149514999999596e+00 8.121775142000000614e+00 0.000000000000000000e+00 9.847622999999999793e-03 9.290516599999999736e-02 7.872201449000000295e+00
6.405896124999999941e+00 0.000000000000000000e+00 0.000000000000000000e+00 -4.819954360999999743e+00 8.140664650999999807e+00 0.000000000000000000e+00 -1.946849529999999939e-01 -1.501751570000000036e-01 7.709539021000000325e+00
6.405896124999999941e+00 0.000000000000000000e+00 0.000000000000000000e+00 -4.819954360999999743e+00 8.140664650999999807e+00 0.000000000000000000e+00 -1.946849529999999939e-01 -1.501751570000000036e-01 7.709539021000000325e+00
6.325023137999999712e+00 0.000000000000000000e+00 0.000000000000000000e+00 -4.964680753999999752e+00 8.121698368000000556e+00 0.000000000000000000e+00 9.524701500000000431e-02 2.210255889999999945e-01 7.949280528000000068e+00
6.325023137999999712e+00 0.000000000000000000e+00 0.000000000000000000e+00 -4.964680753999999752e+00 8.121698368000000556e+00 0.000000000000000000e+00 9.524701500000000431e-02 2.210255889999999945e-01 7.949280528000000068e+00
6.341485558999999661e+00 0.000000000000000000e+00 0.000000000000000000e+00 -4.730223013999999893e+00 8.216267380999999759e+00 0.000000000000000000e+00 1.000874209999999959e-01 -1.308350829999999909e-01 7.615197850999999574e+00
6.341485558999999661e+00 0.000000000000000000e+00 0.000000000000000000e+00 -4.730223013999999893e+00 8.216267380999999759e+00 0.000000000000000000e+00 1.000874209999999959e-01 -1.308350829999999909e-01 7.615197850999999574e+00
6.409772244000000008e+00 0.000000000000000000e+00 0.000000000000000000e+00 -4.984392995000000326e+00 7.988864470000000217e+00 0.000000000000000000e+00 5.407492900000000075e-02 -1.449946310000000127e-01 7.658854220000000268e+00
6.409772244000000008e+00 0.000000000000000000e+00 0.000000000000000000e+00 -4.984392995000000326e+00 7.988864470000000217e+00 0.000000000000000000e+00 5.407492900000000075e-02 -1.449946310000000127e-01 7.658854220000000268e+00
6.379121209000000015e+00 0.000000000000000000e+00 0.000000000000000000e+00 -4.588150010999999751e+00 8.037117973000000859e+00 0.000000000000000000e+00 -5.341499499999999984e-02 1.147299229999999975e-01 7.761916663000000050e+00
6.379121209000000015e+00 0.000000000000000000e+00 0.000000000000000000e+00 -4.588150010999999751e+00 8.037117973000000859e+00 0.000000000000000000e+00 -5.341499499999999984e-02 1.147299229999999975e-01 7.761916663000000050e+00
6.359553293000000274e+00 0.000000000000000000e+00 0.000000000000000000e+00 -4.855094825000000114e+00 8.000819662999999693e+00 0.000000000000000000e+00 -1.847147399999999884e-01 -1.822752049999999957e-01 7.935178495999999804e+00
6.359553293000000274e+00 0.000000000000000000e+00 0.000000000000000000e+00 -4.855094825000000114e+00 8.000819662999999693e+00 0.000000000000000000e+00 -1.847147399999999884e-01 -1.822752049999999957e-01 7.935178495999999804e+00
6.188427184000000025e+00 0.000000000000000000e+00 0.000000000000000000e+00 -4.649683807999999807e+00 7.866597179000000217e+00 0.000000000000000000e+00 -1.493741590000000063e-01 -1.924762540000000133e-01 7.864307077000000312e+00
6.188427184000000025e+00 0.000000000000000000e+00 0.000000000000000000e+00 -4.649683807999999807e+00 7.866597179000000217e+00 0.000000000000000000e+00 -1.493741590000000063e-01 -1.924762540000000133e-01 7.864307077000000312e+00
6.206960282999999912e+00 0.000000000000000000e+00 0.000000000000000000e+00 -4.887583113999999895e+00 8.191938579000000331e+00 0.000000000000000000e+00 -7.640763899999999942e-02 -3.877071199999999884e-02 7.561271250999999971e+00
6.206960282999999912e+00 0.000000000000000000e+00 0.000000000000000000e+00 -4.887583113999999895e+00 8.191938579000000331e+00 0.000000000000000000e+00 -7.640763899999999942e-02 -3.877071199999999884e-02 7.561271250999999971e+00
6.072380406999999813e+00 0.000000000000000000e+00 0.000000000000000000e+00 -4.739955130000000239e+00 8.217664456999999700e+00 0.000000000000000000e+00 1.132474839999999955e-01 -2.210141750000000072e-01 7.792026158999999730e+00
6.072380406999999813e+00 0.000000000000000000e+00 0.000000000000000000e+00 -4.739955130000000239e+00 8.217664456999999700e+00 0.000000000000000000e+00 1.132474839999999955e-01 -2.210141750000000072e-01 7.792026158999999730e+00
6.385273157000000310e+00 0.000000000000000000e+00 0.000000000000000000e+00 -4.761077517999999564e+00 8.096406953000000684e+00 0.000000000000000000e+00 -2.125150000000000075e-04 5.375196899999999667e-02 7.911504234999999774e+00
6.385273157000000310e+00 0.000000000000000000e+00 0.000000000000000000e+00 -4.761077517999999564e+00 8.096406953000000684e+00 0.000000000000000000e+00 -2.125150000000000075e-04 5.375196899999999667e-02 7.911504234999999774e+00
6.136867954000000402e+00 0.000000000000000000e+00 0.000000000000000000e+00 -4.750455010999999672e+00 8.070534830999999798e+00 0.000000000000000000e+00 4.047189200000000237e-02 1.857595199999999974e-02 7.737562325999999935e+00
6.136867954000000402e+00 0.000000000000000000e+00 0.000000000000000000e+00 -4.750455010999999672e+00 8.070534830999999798e+00 0.000000000000000000e+00 4.047189200000000237e-02 1.857595199999999974e-02 7.737562325999999935e+00
6.285308375999999697e+00 0.000000000000000000e+00 0.000000000000000000e+00 -4.870231572999999869e+00 8.252693759999999656e+00 0.000000000000000000e+00 -8.109963600000000272e-02 1.872776270000000021e-01 7.620163895000000132e+00
6.285308375999999697e+00 0.000000000000000000e+00 0.000000000000000000e+00 -4.870231572999999869e+00 8.252693759999999656e+00 0.000000000000000000e+00 -8.109963600000000272e-02 1.872776270000000021e-01 7.620163895000000132e+00
6.427797460000299168e+00 -1.199138444790631799e-22 0.000000000000000000e+00 -4.820841873884807782e+00 8.349956229998490187e+00 0.000000000000000000e+00 0.000000000000000000e+00 0.000000000000000000e+00 8.040879419999999556e+00
6.427797460000299168e+00 -1.199138444790631799e-22 0.000000000000000000e+00 -4.820841873884807782e+00 8.349956229998490187e+00 0.000000000000000000e+00 0.000000000000000000e+00 0.000000000000000000e+00 8.040879419999999556e+00
6.578843606999999594e+00 0.000000000000000000e+00 0.000000000000000000e+00 -5.103401769999999615e+00 8.588909527000000210e+00 0.000000000000000000e+00 -1.231689140000000043e-01 2.342606630000000079e-01 8.211306738999999411e+00
6.578843606999999594e+00 0.000000000000000000e+00 0.000000000000000000e+00 -5.103401769999999615e+00 8.588909527000000210e+00 0.000000000000000000e+00 -1.231689140000000043e-01 2.342606630000000079e-01 8.211306738999999411e+00
6.340865123999999575e+00 0.000000000000000000e+00 0.000000000000000000e+00 -4.539515316000000134e+00 8.207645413999999917e+00 0.000000000000000000e+00 1.071568690000000018e-01 -2.244442389999999898e-01 7.997589376999999722e+00
6.340865123999999575e+00 0.000000000000000000e+00 0.000000000000000000e+00 -4.539515316000000134e+00 8.207645413999999917e+00 0.000000000000000000e+00 1.071568690000000018e-01 -2.244442389999999898e-01 7.997589376999999722e+00
6.504794580999999631e+00 0.000000000000000000e+00 0.000000000000000000e+00 -4.969301149999999723e+00 8.479745720000000375e+00 0.000000000000000000e+00 1.010459020000000069e-01 -3.461255199999999782e-02 8.023227327000000741e+00
6.504794580999999631e+00 0.000000000000000000e+00 0.000000000000000000e+00 -4.969301149999999723e+00 8.479745720000000375e+00 0.000000000000000000e+00 1.010459020000000069e-01 -3.461255199999999782e-02 8.023227327000000741e+00
6.479083430000000199e+00 0.000000000000000000e+00 0.000000000000000000e+00 -4.987650104000000084e+00 8.337660842000000017e+00 0.000000000000000000e+00 1.231640910000000033e-01 2.717666499999999916e-02 7.968508300999999960e+00
6.479083430000000199e+00 0.000000000000000000e+00 0.000000000000000000e+00 -4.987650104000000084e+00 8.337660842000000017e+00 0.000000000000000000e+00 1.231640910000000033e-01 2.717666499999999916e-02 7.968508300999999960e+00
6.549269672000000320e+00 0.000000000000000000e+00 0.000000000000000000e+00 -5.014409564000000152e+00 8.308064527000000865e+00 0.000000000000000000e+00 -1.673438160000000063e-01 2.259810040000000131e-01 8.090795245000000691e+00
6.549269672000000320e+00 0.000000000000000000e+00 0.000000000000000000e+00 -5.014409564000000152e+00 8.308064527000000865e+00 0.000000000000000000e+00 -1.673438160000000063e-01 2.259810040000000131e-01 8.090795245000000691e+00
6.343324019999999841e+00 0.000000000000000000e+00 0.000000000000000000e+00 -4.879923719999999854e+00 8.529999147999999920e+00 0.000000000000000000e+00 1.357419410000000048e-01 -3.170261199999999807e-02 7.975798521999999835e+00
6.343324019999999841e+00 0.000000000000000000e+00 0.000000000000000000e+00 -4.879923719999999854e+00 8.529999147999999920e+00 0.000000000000000000e+00 1.357419410000000048e-01 -3.170261199999999807e-02 7.975798521999999835e+00
6.422138344999999582e+00 0.000000000000000000e+00 0.000000000000000000e+00 -4.981807906000000230e+00 8.474788102999999850e+00 0.000000000000000000e+00 -1.087696739999999967e-01 1.334604379999999868e-01 7.908625589999999761e+00
6.422138344999999582e+00 0.000000000000000000e+00 0.000000000000000000e+00 -4.981807906000000230e+00 8.474788102999999850e+00 0.000000000000000000e+00 -1.087696739999999967e-01 1.334604379999999868e-01 7.908625589999999761e+00
6.403907354000000218e+00 0.000000000000000000e+00 0.000000000000000000e+00 -4.742083055000000158e+00 8.556309504999999760e+00 0.000000000000000000e+00 -5.610620699999999822e-02 9.774226900000000662e-02 7.990012178999999826e+00
6.403907354000000218e+00 0.000000000000000000e+00 0.000000000000000000e+00 -4.742083055000000158e+00 8.556309504999999760e+00 0.000000000000000000e+00 -5.610620699999999822e-02 9.774226900000000662e-02 7.990012178999999826e+00
6.572035087999999803e+00 0.000000000000000000e+00 0.000000000000000000e+00 -4.701821564000000286e+00 8.518313251000000363e+00 0.000000000000000000e+00 -1.243820050000000038e-01 -9.508148399999999389e-02 8.017746605999999332e+00
6.572035087999999803e+00 0.000000000000000000e+00 0.000000000000000000e+00 -4.701821564000000286e+00 8.518313251000000363e+00 0.000000000000000000e+00 -1.243820050000000038e-01 -9.508148399999999389e-02 8.017746605999999332e+00
6.484141697000000093e+00 0.000000000000000000e+00 0.000000000000000000e+00 -4.660278126999999770e+00 8.162886617999999928e+00 0.000000000000000000e+00 4.669544099999999726e-02 -2.030124889999999904e-01 8.219768318999999934e+00
6.484141697000000093e+00 0.000000000000000000e+00 0.000000000000000000e+00 -4.660278126999999770e+00 8.162886617999999928e+00 0.000000000000000000e+00 4.669544099999999726e-02 -2.030124889999999904e-01 8.219768318999999934e+00
6.437267364000000214e+00 0.000000000000000000e+00 0.000000000000000000e+00 -4.759376154999999997e+00 8.192871589999999316e+00 0.000000000000000000e+00 -2.187989130000000115e-01 1.277588500000000071e-02 8.115772721000000800e+00
6.437267364000000214e+00 0.000000000000000000e+00 0.000000000000000000e+00 -4.759376154999999997e+00 8.192871589999999316e+00 0.000000000000000000e+00 -2.187989130000000115e-01 1.277588500000000071e-02 8.115772721000000800e+00
6.365447475999999938e+00 0.000000000000000000e+00 0.000000000000000000e+00 -4.669194676000000044e+00 8.479145165000000262e+00 0.000000000000000000e+00 -2.781047199999999928e-02 -3.582151799999999664e-02 7.834734358999999593e+00
6.365447475999999938e+00 0.000000000000000000e+00 0.000000000000000000e+00 -4.669194676000000044e+00 8.479145165000000262e+00 0.000000000000000000e+00 -2.781047199999999928e-02 -3.582151799999999664e-02 7.834734358999999593e+00
6.273390707999999982e+00 0.000000000000000000e+00 0.000000000000000000e+00 -4.848204697999999979e+00 8.213585051000000803e+00 0.000000000000000000e+00 -7.159571100000000632e-02 -2.443392739999999952e-01 8.073727012999999175e+00
6.273390707999999982e+00 0.000000000000000000e+00 0.000000000000000000e+00 -4.848204697999999979e+00 8.213585051000000803e+00 0.000000000000000000e+00 -7.159571100000000632e-02 -2.443392739999999952e-01 8.073727012999999175e+00
6.270210491000000275e+00 0.000000000000000000e+00 0.000000000000000000e+00 -4.943325944999999777e+00 8.175794624999999982e+00 0.000000000000000000e+00 9.166997100000000287e-02 4.055074899999999705e-02 7.918946499999999666e+00
6.270210491000000275e+00 0.000000000000000000e+00 0.000000000000000000e+00 -4.943325944999999777e+00 8.175794624999999982e+00 0.000000000000000000e+00 9.166997100000000287e-02 4.055074899999999705e-02 7.918946499999999666e+00
6.356023938999999956e+00 0.000000000000000000e+00 0.000000000000000000e+00 -4.971061427000000421e+00 8.269696855999999485e+00 0.000000000000000000e+00 6.069858499999999935e-02 2.163627439999999957e-01 8.235103408000000513e+00
6.356023938999999956e+00 0.000000000000000000e+00 0.000000000000000000e+00 -4.971061427000000421e+00 8.269696855999999485e+00 0.000000000000000000e+00 6.069858499999999935e-02 2.163627439999999957e-01 8.235103408000000513e+00
6.404680293000000191e+00 0.000000000000000000e+00 0.000000000000000000e+00 -4.918343061999999932e+00 8.204492755000000415e+00 0.000000000000000000e+00 -2.387324680000000032e-01 4.451904200000000172e-02 7.921300060000000087e+00
6.404680293000000191e+00 0.000000000000000000e+00 0.000000000000000000e+00 -4.918343061999999932e+00 8.204492755000000415e+00 0.000000000000000000e+00 -2.387324680000000032e-01 4.451904200000000172e-02 7.921300060000000087e+00
6.412531335999999804e+00 0.000000000000000000e+00 0.000000000000000000e+00 -4.802485008999999749e+00 8.225060039000000600e+00 0.000000000000000000e+00 1.673369690000000021e-01 -2.289484730000000134e-01 8.130304663000000431e+00
6.412531335999999804e+00 0.000000000000000000e+00 0.000000000000000000e+00 -4.802485008999999749e+00 8.225060039000000600e+00 0.000000000000000000e+00 1.673369690000000021e-01 -2.289484730000000134e-01 8.130304663000000431e+00
6.281166742999999997e+00 0.000000000000000000e+00 0.000000000000000000e+00 -4.836033375999999606e+00 8.256191167000000775e+00 0.000000000000000000e+00 -1.463540819999999965e-01 8.086026600000000009e-02 8.082793771000000405e+00
6.281166742999999997e+00 0.000000000000000000e+00 0.000000000000000000e+00 -4.836033375999999606e+00 8.256191167000000775e+00 0.000000000000000000e+00 -1.463540819999999965e-01 8.086026600000000009e-02 8.082793771000000405e+00
6.400514845000000008e+00 0.000000000000000000e+00 0.000000000000000000e+00 -4.599180192000000389e+00 8.306050240999999446e+00 0.000000000000000000e+00 5.356589500000000226e-02 -4.748027099999999751e-02 8.153728379000000359e+00
6.400514845000000008e+00 0.000000000000000000e+00 0.000000000000000000e+00 -4.599180192000000389e+00 8.306050240999999446e+00 0.000000000000000000e+00 5.356589500000000226e-02 -4.748027099999999751e-02 8.153728379000000359e+00
6.525059727000000365e+00 0.000000000000000000e+00 0.000000000000000000e+00 -4.669255674999999606e+00 8.166741747999999745e+00 0.000000000000000000e+00 -1.545405330000000077e-01 2.258617659999999916e-01 8.068347296000000668e+00
6.525059727000000365e+00 0.000000000000000000e+00 0.000000000000000000e+00 -4.669255674999999606e+00 8.166741747999999745e+00 0.000000000000000000e+00 -1.545405330000000077e-01 2.258617659999999916e-01 8.068347296000000668e+00
6.418212223000000272e+00 0.000000000000000000e+00 0.000000000000000000e+00 -4.867281047999999721e+00 8.342087828000000371e+00 0.000000000000000000e+00 -2.423120299999999977e-02 -4.183080200000000026e-02 7.889657921999999601e+00
6.418212223000000272e+00 0.000000000000000000e+00 0.000000000000000000e+00 -4.867281047999999721e+00 8.342087828000000371e+00 0.000000000000000000e+00 -2.423120299999999977e-02 -4.183080200000000026e-02 7.889657921999999601e+00
6.567204337999999808e+00 0.000000000000000000e+00 0.000000000000000000e+00 -4.845489581999999906e+00 8.561227565999999456e+00 0.000000000000000000e+00 -1.657285049999999982e-01 -1.779746080000000064e-01 8.006769065000000296e+00
6.567204337999999808e+00 0.000000000000000000e+00 0.000000000000000000e+00 -4.845489581999999906e+00 8.561227565999999456e+00 0.000000000000000000e+00 -1.657285049999999982e-01 -1.779746080000000064e-01 8.006769065000000296e+00
6.508383982999999873e+00 0.000000000000000000e+00 0.000000000000000000e+00 -4.964880468999999685e+00 8.211637602999999785e+00 0.000000000000000000e+00 2.180049430000000066e-01 -9.740944899999999518e-02 8.130853479000000661e+00
6.508383982999999873e+00 0.000000000000000000e+00 0.000000000000000000e+00 -4.964880468999999685e+00 8.211637602999999785e+00 0.000000000000000000e+00 2.180049430000000066e-01 -9.740944899999999518e-02 8.130853479000000661e+00
6.555064214999999805e+00 0.000000000000000000e+00 0.000000000000000000e+00 -4.828616464999999636e+00 8.397246875000000443e+00 0.000000000000000000e+00 -1.597142119999999943e-01 -2.051450509999999949e-01 8.235131658000000243e+00
6.555064214999999805e+00 0.000000000000000000e+00 0.000000000000000000e+00 -4.828616464999999636e+00 8.397246875000000443e+00 0.000000000000000000e+00 -1.597142119999999943e-01 -2.051450509999999949e-01 8.235131658000000243e+00
6.584754818999999593e+00 0.000000000000000000e+00 0.000000000000000000e+00 -4.857895772000000001e+00 8.240560175000000598e+00 0.000000000000000000e+00 1.739232450000000041e-01 8.769239500000000631e-02 8.209041175999999496e+00
6.584754818999999593e+00 0.000000000000000000e+00 0.000000000000000000e+00 -4.857895772000000001e+00 8.240560175000000598e+00 0.000000000000000000e+00 1.739232450000000041e-01 8.769239500000000631e-02 8.209041175999999496e+00
6.263995058999999976e+00 0.000000000000000000e+00 0.000000000000000000e+00 -4.842050880000000390e+00 8.275463386000000199e+00 0.000000000000000000e+00 2.053713470000000096e-01 -1.367375239999999992e-01 7.844040344999999803e+00
6.263995058999999976e+00 0.000000000000000000e+00 0.000000000000000000e+00 -4.842050880000000390e+00 8.275463386000000199e+00 0.000000000000000000e+00 2.053713470000000096e-01 -1.367375239999999992e-01 7.844040344999999803e+00
6.506816834000000327e+00 0.000000000000000000e+00 0.000000000000000000e+00 -4.816437994000000167e+00 8.598614161000000422e+00 0.000000000000000000e+00 8.536188499999999846e-02 1.161940689999999970e-01 7.922946085999999610e+00
6.506816834000000327e+00 0.000000000000000000e+00 0.000000000000000000e+00 -4.816437994000000167e+00 8.598614161000000422e+00 0.000000000000000000e+00 8.536188499999999846e-02 1.161940689999999970e-01 7.922946085999999610e+00
6.588723619999999670e+00 0.000000000000000000e+00 0.000000000000000000e+00 -4.972484062000000371e+00 8.102191559999999626e+00 0.000000000000000000e+00 -6.324131099999999450e-02 8.725465200000000199e-02 8.122798530000000738e+00
6.588723619999999670e+00 0.000000000000000000e+00 0.000000000000000000e+00 -4.972484062000000371e+00 8.102191559999999626e+00 0.000000000000000000e+00 -6.324131099999999450e-02 8.725465200000000199e-02 8.122798530000000738e+00
6.305492556999999998e+00 0.000000000000000000e+00 0.000000000000000000e+00 -4.732832214000000093e+00 8.303632791000000068e+00 0.000000000000000000e+00 -1.391514550000000072e-01 2.091147939999999927e-01 7.947890934000000129e+00
6.305492556999999998e+00 0.000000000000000000e+00 0.000000000000000000e+00 -4.732832214000000093e+00 8.303632791000000068e+00 0.000000000000000000e+00 -1.391514550000000072e-01 2.091147939999999927e-01 7.947890934000000129e+00
6.558977000000304258e+00 -2.865817392422267494e-22 0.000000000000000000e+00 -4.919226401923271652e+00 8.520363499998460100e+00 0.000000000000000000e+00 0.000000000000000000e+00 0.000000000000000000e+00 8.204978999999999800e+00
6.558977000000304258e+00 -2.865817392422267494e-22 0.000000000000000000e+00 -4.919226401923271652e+00 8.520363499998460100e+00 0.000000000000000000e+00 0.000000000000000000e+00 0.000000000000000000e+00 8.204978999999999800e+00
6.475891319999999673e+00 0.000000000000000000e+00 0.000000000000000000e+00 -4.815268262000000021e+00 8.454964254000000068e+00 0.000000000000000000e+00 -5.707392900000000241e-02 -2.486373700000000034e-02 8.282441618000000005e+00
6.475891319999999673e+00 0.000000000000000000e+00 0.000000000000000000e+00 -4.815268262000000021e+00 8.454964254000000068e+00 0.000000000000000000e+00 -5.707392900000000241e-02 -2.486373700000000034e-02 8.282441618000000005e+00
6.582665805000000425e+00 0.000000000000000000e+00 0.000000000000000000e+00 -4.845007058000000200e+00 8.647986719000000377e+00 0.000000000000000000e+00 -2.102508240000000028e-01 1.382579240000000043e-01 8.364682512999999986e+00
6.582665805000000425e+00 0.000000000000000000e+00 0.000000000000000000e+00 -4.845007058000000200e+00 8.647986719000000377e+00 0.000000000000000000e+00 -2.102508240000000028e-01 1.382579240000000043e-01 8.364682512999999986e+00
6.663833653000000190e+00 0.000000000000000000e+00 0.000000000000000000e+00 -5.005243548000000153e+00 8.700610976000000107e+00 0.000000000000000000e+00 1.788374259999999938e-01 2.395455129999999877e-01 8.312898425000000202e+00
6.663833653000000190e+00 0.000000000000000000e+00 0.000000000000000000e+00 -5.005243548000000153e+00 8.700610976000000107e+00 0.000000000000000000e+00 1.788374259999999938e-01 2.395455129999999877e-01 8.312898425000000202e+00
6.479104340000000128e+00 0.000000000000000000e+00 0.000000000000000000e+00 -4.817123682000000073e+00 8.513127967000000851e+00 0.000000000000000000e+00 -1.066735119999999981e-01 -1.113340859999999988e-01 8.443460319999999797e+00
6.479104340000000128e+00 0.000000000000000000e+00 0.000000000000000000e+00 -4.817123682000000073e+00 8.513127967000000851e+00 0.000000000000000000e+00 -1.066735119999999981e-01 -1.113340859999999988e-01 8.443460319999999797e+00
6.363109204999999768e+00 0.000000000000000000e+00 0.000000000000000000e+00 -4.806370566000000011e+00 8.544187172999999191e+00 0.000000000000000000e+00 -4.677633199999999686e-02 1.843879800000000069e-01 8.223599360999999774e+00
6.363109204999999768e+00 0.000000000000000000e+00 0.000000000000000000e+00 -4.806370566000000011e+00 8.544187172999999191e+00 0.000000000000000000e+00 -4.677633199999999686e-02 1.843879800000000069e-01 8.223599360999999774e+00