1.557760274240864939e+00 8.993695249990548701e-01 2.923020000000000174e+00 1.557760274240864939e+00 8.993695249990548701e-01 6.820389999999999731e+00 1.096963749072403256e-06 3.597479999999832589e+00 2.923020000000000174e+00 1.096963749072403256e-06 3.597479999999832589e+00 6.820389999999999731e+00 -1.557758080310317483e+00 6.295600475000610707e+00 2.923020000000000174e+00 -1.557758080310317483e+00 6.295600475000610707e+00 6.820389999999999731e+00 4.673270274240720390e+00 8.993685750002974322e-01 2.923020000000000174e+00 4.673270274240720390e+00 8.993685750002974322e-01 6.820389999999999731e+00 3.115521096963604464e+00 3.597479049998026035e+00 2.923020000000000174e+00 3.115521096963604464e+00 3.597479049998026035e+00 6.820389999999999731e+00 1.557761919689537811e+00 6.295599524998803709e+00 2.923020000000000174e+00 1.557761919689537811e+00 6.295599524998803709e+00 6.820389999999999731e+00 5.484818745362016279e-07 1.798739999999916295e+00 9.743399999999999839e-01 5.484818745362016279e-07 1.798739999999916295e+00 4.871710000000000207e+00 -1.557758628792192068e+00 4.496860475000693746e+00 9.743399999999999839e-01 -1.557758628792192068e+00 4.496860475000693746e+00 4.871710000000000207e+00 -3.115507806069307772e+00 7.194970949998422682e+00 9.743399999999999839e-01 -3.115507806069307772e+00 7.194970949998422682e+00 4.871710000000000207e+00 3.115520548481729879e+00 1.798739049998109740e+00 9.743399999999999839e-01 3.115520548481729879e+00 1.798739049998109740e+00 4.871710000000000207e+00 1.557761371207663226e+00 4.496859524998887636e+00 9.743399999999999839e-01 1.557761371207663226e+00 4.496859524998887636e+00 4.871710000000000207e+00 2.193930547400811151e-06 7.194969999999664800e+00 9.743399999999999839e-01 2.193930547400811151e-06 7.194969999999664800e+00 4.871710000000000207e+00 1.557760274240864939e+00 8.993695249990548701e-01 9.743399999999999839e-01 1.557760274240864939e+00 8.993695249990548701e-01 4.871710000000000207e+00 1.096963749072403256e-06 3.597479999999832589e+00 9.743399999999999839e-01 1.096963749072403256e-06 3.597479999999832589e+00 4.871710000000000207e+00 -1.557758080310317483e+00 6.295600475000610707e+00 9.743399999999999839e-01 -1.557758080310317483e+00 6.295600475000610707e+00 4.871710000000000207e+00 4.673270274240720390e+00 8.993685750002974322e-01 9.743399999999999839e-01 4.673270274240720390e+00 8.993685750002974322e-01 4.871710000000000207e+00 3.115521096963604464e+00 3.597479049998026035e+00 9.743399999999999839e-01 3.115521096963604464e+00 3.597479049998026035e+00 4.871710000000000207e+00 1.557761919689537811e+00 6.295599524998803709e+00 9.743399999999999839e-01 1.557761919689537811e+00 6.295599524998803709e+00 4.871710000000000207e+00 5.484818745362016279e-07 1.798739999999916295e+00 2.923020000000000174e+00 5.484818745362016279e-07 1.798739999999916295e+00 6.820389999999999731e+00 -1.557758628792192068e+00 4.496860475000693746e+00 2.923020000000000174e+00 -1.557758628792192068e+00 4.496860475000693746e+00 6.820389999999999731e+00 -3.115507806069307772e+00 7.194970949998422682e+00 2.923020000000000174e+00 -3.115507806069307772e+00 7.194970949998422682e+00 6.820389999999999731e+00 3.115520548481729879e+00 1.798739049998109740e+00 2.923020000000000174e+00 3.115520548481729879e+00 1.798739049998109740e+00 6.820389999999999731e+00 1.557761371207663226e+00 4.496859524998887636e+00 2.923020000000000174e+00 1.557761371207663226e+00 4.496859524998887636e+00 6.820389999999999731e+00 2.193930547400811151e-06 7.194969999999664800e+00 2.923020000000000174e+00 2.193930547400811151e-06 7.194969999999664800e+00 6.820389999999999731e+00
1.557100274481756363e+00 9.001595252003056213e-01 2.924249999999999794e+00 1.559060274195125828e+00 8.992195246026515321e-01 6.821089999999999876e+00 -5.489030789404862002e-04 3.597340000167541518e+00 2.923200000000000021e+00 7.810971680491885167e-04 3.598149999761990792e+00 6.818649999999999878e+00 -1.556828080526814873e+00 6.294890474717029782e+00 2.921980000000000022e+00 -1.557318080337761090e+00 6.295510474866443218e+00 6.817339999999999733e+00 4.674850275097561791e+00 9.021785745185147976e-01 2.919119999999999937e+00 4.674880274085208676e+00 8.988585745093672363e-01 6.819110000000000227e+00 3.114061096710516452e+00 3.596649050443217366e+00 2.923480000000000079e+00 3.114451097238037924e+00 3.598379050324296280e+00 6.818819999999999659e+00 1.558231919076637384e+00 6.293589524855488726e+00 2.923560000000000159e+00 1.554731919494385606e+00 6.294959525922728005e+00 6.824080000000000368e+00 3.350549546064726398e-03 1.802229998978415404e+00 9.719400000000000261e-01 6.305493204199081594e-04 1.801489999807813103e+00 4.869749999999999801e+00 -1.559378628911112896e+00 4.496470475494674268e+00 9.761300000000000532e-01 -1.561118628612286008e+00 4.497450476025243837e+00 4.873499999999999943e+00 -3.116597804748979961e+00 7.199300950330791871e+00 9.748400000000000398e-01 -3.114637806209574311e+00 7.194510949733137650e+00 4.875000000000000000e+00 3.113690548106671674e+00 1.797509050556123533e+00 9.774399999999999755e-01 3.117730548698226745e+00 1.799449049324224115e+00 4.873590000000000089e+00 1.556531371177170886e+00 4.496759525373946076e+00 9.749600000000000488e-01 1.561761371119234854e+00 4.496569523779185396e+00 4.870549999999999713e+00 1.842193403026026613e-03 7.193239999438602261e+00 9.739400000000000279e-01 -4.378064109692512539e-04 7.193850000133832800e+00 4.866620000000000168e+00 1.557520273945087075e+00 8.983995250722369708e-01 9.759499999999999842e-01 1.555090274704352016e+00 9.008895258132060269e-01 4.870919999999999916e+00 5.510969911923510123e-04 3.597569999832123777e+00 9.744199999999999529e-01 3.781097530910514093e-03 3.599339998847213895e+00 4.870099999999999874e+00 -1.559948080639637080e+00 6.294520475668398340e+00 9.741800000000000459e-01 -1.557078080557307453e+00 6.294790474793260593e+00 4.870969999999999800e+00 4.673950273722346616e+00 8.976685747929480375e-01 9.748700000000000143e-01 4.676980273960189116e+00 8.984485738690234369e-01 4.870800000000000018e+00 3.115871096658678674e+00 3.596479049891302182e+00 9.764399999999999746e-01 3.112201097411845474e+00 3.598949051010378763e+00 4.872499999999999609e+00 1.556441919491336368e+00 6.294949525401305479e+00 9.766000000000000236e-01 1.561261919591961700e+00 6.295279523931563759e+00 4.875799999999999912e+00 -3.769452057843601829e-03 1.796970001149485796e+00 2.923989999999999867e+00 6.005483599042680740e-04 1.798339999816961132e+00 6.822000000000000064e+00 -1.557548628685468062e+00 4.497210474936659708e+00 2.920850000000000168e+00 -1.558228629228235684e+00 4.495430475144009286e+00 6.819139999999999979e+00 -3.116167805148432279e+00 7.197990950199673499e+00 2.922569999999999890e+00 -3.115497805889401839e+00 7.195560949995373434e+00 6.820619999999999905e+00 3.115170548314020849e+00 1.798189050104833653e+00 2.920269999999999921e+00 3.115240548710423774e+00 1.799489050083488806e+00 6.818599999999999994e+00 1.556951372015716428e+00 4.499509525245876773e+00 2.921450000000000102e+00 1.559491370789915177e+00 4.495489524471366849e+00 6.821299999999999919e+00 -1.647806285949698956e-03 7.194260000502792352e+00 2.923929999999999918e+00 2.219332984396701571e-05 7.192999999993566540e+00 6.820470000000000255e+00
1.493379999999999930e+00 8.415200000000000458e-01 3.009349999999999969e+00 1.400239999999999929e+00 7.272899999999999920e-01 7.015600000000000058e+00 -1.497499999999999942e-01 3.602230000000000043e+00 3.011820000000000164e+00 -2.481200000000000072e-01 3.494990000000000041e+00 7.021480000000000388e+00 -1.791979999999999906e+00 6.367140000000000022e+00 3.009209999999999940e+00 -1.890570000000000084e+00 6.260080000000000311e+00 7.020299999999999763e+00 4.669529999999999959e+00 8.399299999999999544e-01 3.010289999999999910e+00 4.570059999999999789e+00 7.330100000000000504e-01 7.020439999999999792e+00 3.026990000000000069e+00 3.600839999999999819e+00 3.011719999999999953e+00 2.925139999999999851e+00 3.498650000000000038e+00 7.020789999999999864e+00 1.382360000000000033e+00 6.363669999999999938e+00 3.016360000000000152e+00 1.288910000000000000e+00 6.261720000000000397e+00 7.020590000000000330e+00 -6.264999999999999736e-02 1.815220000000000056e+00 1.002909999999999968e+00 -1.542499999999999982e-01 1.708620000000000028e+00 5.022350000000000314e+00 -1.707819999999999894e+00 4.575709999999999944e+00 1.005500000000000060e+00 -1.808410000000000073e+00 4.472409999999999997e+00 5.016399999999999970e+00 -3.351630000000000109e+00 7.340010000000000367e+00 1.002520000000000078e+00 -3.450489999999999835e+00 7.231690000000000396e+00 5.014350000000000307e+00 3.111419999999999852e+00 1.816330000000000000e+00 1.004000000000000004e+00 3.008280000000000065e+00 1.703729999999999967e+00 5.020609999999999573e+00 1.466460000000000097e+00 4.577810000000000379e+00 1.002250000000000085e+00 1.370659999999999989e+00 4.473679999999999879e+00 5.016320000000000334e+00 -1.838299999999999934e-01 7.340679999999999872e+00 1.001759999999999984e+00 -2.752800000000000247e-01 7.236279999999999824e+00 5.015039999999999942e+00 1.540899999999999936e+00 9.027399999999999869e-01 9.984899999999999887e-01 1.444329999999999892e+00 7.823400000000000354e-01 5.018930000000000113e+00 -1.003300000000000025e-01 3.652590000000000003e+00 9.993300000000000516e-01 -1.993800000000000017e-01 3.549100000000000144e+00 5.016140000000000043e+00 -1.748369999999999980e+00 6.421129999999999782e+00 1.005509999999999904e+00 -1.838819999999999899e+00 6.307839999999999669e+00 5.012089999999999712e+00 4.715889999999999915e+00 8.939500000000000224e-01 1.000040000000000040e+00 4.624310000000000365e+00 7.953400000000000469e-01 5.015880000000000116e+00 3.075169999999999959e+00 3.657290000000000152e+00 1.006639999999999979e+00 2.977879999999999860e+00 3.552000000000000046e+00 5.016379999999999839e+00 1.425100000000000033e+00 6.423140000000000072e+00 1.010659999999999892e+00 1.327700000000000102e+00 6.311700000000000088e+00 5.010220000000000340e+00 -1.120300000000000046e-01 1.763649999999999940e+00 3.009119999999999795e+00 -2.079699999999999882e-01 1.651210000000000067e+00 7.016469999999999985e+00 -1.752629999999999910e+00 4.522190000000000154e+00 3.011750000000000149e+00 -1.853199999999999958e+00 4.415650000000000297e+00 7.022669999999999746e+00 -3.398779999999999912e+00 7.287110000000000198e+00 3.004269999999999996e+00 -3.491919999999999913e+00 7.174820000000000420e+00 7.014660000000000117e+00 3.062669999999999781e+00 1.767840000000000078e+00 3.015099999999999891e+00 2.967579999999999885e+00 1.654519999999999991e+00 7.019079999999999764e+00 1.418009999999999993e+00 4.524289999999999701e+00 3.008129999999999971e+00 1.318950000000000067e+00 4.414159999999999862e+00 7.026159999999999961e+00 -2.199599999999999889e-01 7.281990000000000407e+00 3.008519999999999861e+00 -3.273199999999999998e-01 7.179179999999999673e+00 7.024370000000000225e+00
1.492429999999999923e+00 8.398999999999999799e-01 3.010909999999999975e+00 1.400740000000000096e+00 7.268400000000000416e-01 7.014969999999999928e+00 -1.482700000000000129e-01 3.598469999999999835e+00 3.009419999999999984e+00 -2.460199999999999887e-01 3.497520000000000184e+00 7.020030000000000214e+00 -1.787800000000000056e+00 6.369200000000000195e+00 3.006419999999999870e+00 -1.891150000000000109e+00 6.257049999999999557e+00 7.018060000000000187e+00 4.671800000000000175e+00 8.402500000000000524e-01 3.008449999999999847e+00 4.567580000000000418e+00 7.321900000000000075e-01 7.018150000000000333e+00 3.027480000000000171e+00 3.598019999999999996e+00 3.008550000000000058e+00 2.923550000000000093e+00 3.493889999999999940e+00 7.022979999999999556e+00 1.383070000000000022e+00 6.363129999999999953e+00 3.014139999999999819e+00 1.287400000000000100e+00 6.261400000000000077e+00 7.023590000000000444e+00 -6.521000000000000407e-02 1.814570000000000016e+00 1.005679999999999907e+00 -1.521200000000000052e-01 1.708639999999999937e+00 5.023850000000000371e+00 -1.705829999999999957e+00 4.576419999999999710e+00 1.006950000000000012e+00 -1.805279999999999996e+00 4.474879999999999747e+00 5.018119999999999692e+00 -3.353180000000000049e+00 7.338759999999999728e+00 1.006199999999999983e+00 -3.448669999999999902e+00 7.229829999999999757e+00 5.012699999999999712e+00 3.114520000000000177e+00 1.816950000000000065e+00 1.008529999999999927e+00 3.011210000000000164e+00 1.706360000000000099e+00 5.020480000000000054e+00 1.467160000000000020e+00 4.576030000000000264e+00 9.996399999999999730e-01 1.373899999999999899e+00 4.474809999999999732e+00 5.014619999999999855e+00 -1.857800000000000007e-01 7.345629999999999882e+00 1.002669999999999950e+00 -2.781600000000000183e-01 7.234210000000000029e+00 5.013359999999999594e+00 1.540329999999999977e+00 9.055199999999999916e-01 9.982499999999999707e-01 1.444839999999999902e+00 7.816699999999999759e-01 5.019759999999999778e+00 -1.016399999999999942e-01 3.654240000000000155e+00 9.991499999999999826e-01 -2.043800000000000061e-01 3.548420000000000130e+00 5.016910000000000203e+00 -1.750580000000000025e+00 6.421260000000000190e+00 1.005800000000000027e+00 -1.835930000000000062e+00 6.306980000000000253e+00 5.010259999999999714e+00 4.715480000000000338e+00 8.964499999999999691e-01 1.000380000000000047e+00 4.623529999999999696e+00 7.976600000000000357e-01 5.016869999999999941e+00 3.077259999999999884e+00 3.655510000000000037e+00 1.006899999999999906e+00 2.975820000000000132e+00 3.551299999999999901e+00 5.017240000000000144e+00 1.422770000000000090e+00 6.423919999999999852e+00 1.012369999999999992e+00 1.327199999999999935e+00 6.312680000000000291e+00 5.010360000000000369e+00 -1.117800000000000044e-01 1.762459999999999916e+00 3.008910000000000196e+00 -2.061499999999999999e-01 1.652789999999999981e+00 7.018670000000000186e+00 -1.753060000000000063e+00 4.523369999999999891e+00 3.012389999999999901e+00 -1.852130000000000054e+00 4.413070000000000270e+00 7.021230000000000082e+00 -3.398050000000000015e+00 7.286270000000000024e+00 3.003880000000000106e+00 -3.492370000000000196e+00 7.173759999999999692e+00 7.014499999999999957e+00 3.062510000000000066e+00 1.767039999999999944e+00 3.014600000000000168e+00 2.967330000000000023e+00 1.655640000000000001e+00 7.020209999999999617e+00 1.417799999999999949e+00 4.525870000000000282e+00 3.006780000000000008e+00 1.319029999999999925e+00 4.413850000000000051e+00 7.024239999999999817e+00 -2.185400000000000120e-01 7.282160000000000188e+00 3.008929999999999882e+00 -3.291600000000000081e-01 7.178169999999999717e+00 7.023850000000000371e+00
1.501819999999999933e+00 9.824800000000000200e-01 2.864749999999999908e+00 1.444499999999999895e+00 1.050419999999999909e+00 6.668720000000000425e+00 -4.850999999999999757e-02 3.735170000000000101e+00 2.860799999999999788e+00 -1.018000000000000016e-01 3.806010000000000115e+00 6.678919999999999746e+00 -1.598770000000000024e+00 6.487070000000000114e+00 2.866270000000000095e+00 -1.658609999999999918e+00 6.569960000000000022e+00 6.673939999999999984e+00 4.595290000000000319e+00 9.757799999999999807e-01 2.859100000000000197e+00 4.543370000000000353e+00 1.049919999999999964e+00 6.673600000000000421e+00 3.043520000000000003e+00 3.738840000000000163e+00 2.856149999999999967e+00 2.988339999999999996e+00 3.809450000000000003e+00 6.673759999999999692e+00 1.491160000000000041e+00 6.491469999999999629e+00 2.857180000000000053e+00 1.436309999999999976e+00 6.567770000000000330e+00 6.671689999999999898e+00 -1.528999999999999977e-02 1.861010000000000053e+00 9.499800000000000466e-01 -7.727000000000000535e-02 1.932560000000000056e+00 4.767039999999999722e+00 -1.568100000000000049e+00 4.621830000000000105e+00 9.530499999999999527e-01 -1.627019999999999911e+00 4.697090000000000209e+00 4.767400000000000304e+00 -3.122380000000000155e+00 7.374929999999999986e+00 9.521199999999999664e-01 -3.181649999999999867e+00 7.449550000000000338e+00 4.768369999999999997e+00 3.077799999999999869e+00 1.858330000000000037e+00 9.540199999999999791e-01 3.018759999999999888e+00 1.939780000000000060e+00 4.769470000000000098e+00 1.525320000000000009e+00 4.616369999999999862e+00 9.534200000000000452e-01 1.466229999999999922e+00 4.690760000000000041e+00 4.766759999999999664e+00 -2.511000000000000038e-02 7.371459999999999901e+00 9.566599999999999548e-01 -8.594999999999999862e-02 7.449860000000000149e+00 4.767159999999999620e+00 1.528820000000000068e+00 9.418800000000000505e-01 9.539699999999999847e-01 1.472820000000000018e+00 1.014969999999999928e+00 4.765550000000000175e+00 -2.136000000000000051e-02 3.695209999999999884e+00 9.518999999999999684e-01 -8.222000000000000142e-02 3.771879999999999900e+00 4.769219999999999793e+00 -1.570799999999999974e+00 6.451999999999999957e+00 9.526000000000000023e-01 -1.627410000000000023e+00 6.529480000000000395e+00 4.770260000000000389e+00 4.630040000000000155e+00 9.336200000000000054e-01 9.565900000000000514e-01 4.572729999999999961e+00 1.012450000000000072e+00 4.768779999999999575e+00 3.067239999999999966e+00 3.693109999999999893e+00 9.540800000000000392e-01 3.025599999999999845e+00 3.768450000000000077e+00 4.766119999999999912e+00 1.520869999999999944e+00 6.458490000000000286e+00 9.564000000000000279e-01 1.458830000000000071e+00 6.528380000000000294e+00 4.768200000000000216e+00 -5.075999999999999956e-02 1.891599999999999948e+00 2.858369999999999855e+00 -1.133099999999999941e-01 1.972539999999999960e+00 6.671509999999999607e+00 -1.594700000000000006e+00 4.649610000000000021e+00 2.862229999999999830e+00 -1.654870000000000063e+00 4.727660000000000196e+00 6.669830000000000148e+00 -3.153939999999999966e+00 7.409379999999999633e+00 2.864100000000000090e+00 -3.210449999999999804e+00 7.487350000000000172e+00 6.673099999999999810e+00 3.046040000000000081e+00 1.897720000000000073e+00 2.864689999999999959e+00 2.990470000000000184e+00 1.974220000000000086e+00 6.676590000000000025e+00 1.489859999999999962e+00 4.660020000000000273e+00 2.855220000000000091e+00 1.436569999999999903e+00 4.729689999999999728e+00 6.675970000000000404e+00 -5.202999999999999986e-02 7.413509999999999600e+00 2.855840000000000156e+00 -1.168099999999999972e-01 7.491579999999999906e+00 6.671269999999999811e+00
1.504680000000000017e+00 9.802499999999999547e-01 2.864730000000000221e+00 1.445820000000000105e+00 1.050010000000000110e+00 6.668319999999999581e+00 -4.769000000000000322e-02 3.734469999999999956e+00 2.864290000000000003e+00 -1.008200000000000068e-01 3.807939999999999880e+00 6.676899999999999835e+00 -1.600009999999999932e+00 6.484090000000000131e+00 2.867999999999999883e+00 -1.656519999999999992e+00 6.568939999999999557e+00 6.674419999999999575e+00 4.595089999999999897e+00 9.749700000000000033e-01 2.862589999999999968e+00 4.543239999999999945e+00 1.053010000000000002e+00 6.675370000000000026e+00 3.041959999999999997e+00 3.738469999999999960e+00 2.859210000000000029e+00 2.988949999999999996e+00 3.808230000000000004e+00 6.672119999999999607e+00 1.487170000000000103e+00 6.489830000000000432e+00 2.851780000000000204e+00 1.434460000000000068e+00 6.566819999999999879e+00 6.672060000000000102e+00 -1.699000000000000163e-02 1.860640000000000072e+00 9.475500000000000034e-01 -8.447000000000000342e-02 1.931950000000000056e+00 4.766779999999999795e+00 -1.568640000000000034e+00 4.622460000000000235e+00 9.547200000000000131e-01 -1.624390000000000001e+00 4.694130000000000358e+00 4.767719999999999736e+00 -3.120579999999999909e+00 7.374299999999999855e+00 9.492500000000000382e-01 -3.179349999999999898e+00 7.449939999999999785e+00 4.770529999999999937e+00 3.077399999999999913e+00 1.859920000000000018e+00 9.526999999999999913e-01 3.020230000000000192e+00 1.939230000000000009e+00 4.771910000000000096e+00 1.526969999999999938e+00 4.619379999999999598e+00 9.566599999999999548e-01 1.465070000000000094e+00 4.691329999999999778e+00 4.767280000000000406e+00 -2.667999999999999886e-02 7.371089999999999698e+00 9.568799999999999528e-01 -8.594000000000000250e-02 7.452980000000000160e+00 4.768089999999999939e+00 1.531369999999999898e+00 9.416299999999999670e-01 9.558499999999999774e-01 1.474180000000000046e+00 1.012969999999999926e+00 4.766269999999999563e+00 -2.196000000000000035e-02 3.693550000000000111e+00 9.508400000000000185e-01 -8.305999999999999495e-02 3.773950000000000138e+00 4.768200000000000216e+00 -1.568370000000000042e+00 6.448570000000000135e+00 9.528299999999999548e-01 -1.626819999999999933e+00 6.528629999999999711e+00 4.768790000000000084e+00 4.629879999999999995e+00 9.317699999999999871e-01 9.565000000000000169e-01 4.573269999999999946e+00 1.014969999999999928e+00 4.768550000000000288e+00 3.064770000000000216e+00 3.694069999999999965e+00 9.538499999999999757e-01 3.026349999999999874e+00 3.767749999999999932e+00 4.766680000000000028e+00 1.521099999999999897e+00 6.459640000000000271e+00 9.574300000000000033e-01 1.458639999999999937e+00 6.529139999999999944e+00 4.768989999999999618e+00 -5.210999999999999660e-02 1.892930000000000001e+00 2.858859999999999957e+00 -1.104900000000000049e-01 1.972010000000000041e+00 6.668739999999999668e+00 -1.593879999999999963e+00 4.651629999999999932e+00 2.859799999999999898e+00 -1.654979999999999896e+00 4.727689999999999948e+00 6.669690000000000119e+00 -3.154869999999999841e+00 7.412340000000000373e+00 2.862010000000000165e+00 -3.211030000000000051e+00 7.485859999999999737e+00 6.671210000000000306e+00 3.045879999999999921e+00 1.897229999999999972e+00 2.864069999999999894e+00 2.989920000000000133e+00 1.971680000000000099e+00 6.674830000000000041e+00 1.489139999999999908e+00 4.662969999999999615e+00 2.857110000000000039e+00 1.435950000000000060e+00 4.726869999999999905e+00 6.677620000000000111e+00 -5.172000000000000208e-02 7.416809999999999903e+00 2.856040000000000134e+00 -1.183400000000000007e-01 7.491970000000000240e+00 6.672679999999999723e+00
1.650600000000000067e+00 8.396500000000000075e-01 2.983340000000000103e+00 1.726250000000000062e+00 7.475399999999999823e-01 6.964059999999999917e+00 1.245099999999999957e-01 3.588849999999999874e+00 2.983950000000000102e+00 1.914200000000000068e-01 3.484900000000000109e+00 6.969500000000000028e+00 -1.416840000000000099e+00 6.329589999999999606e+00 2.984510000000000218e+00 -1.335280000000000022e+00 6.232599999999999696e+00 6.966580000000000439e+00 4.807769999999999655e+00 8.407599999999999518e-01 2.988579999999999792e+00 4.892019999999999591e+00 7.515500000000000513e-01 6.970139999999999780e+00 3.277680000000000149e+00 3.583219999999999850e+00 2.986470000000000180e+00 3.349829999999999863e+00 3.493370000000000086e+00 6.968950000000000422e+00 1.743980000000000086e+00 6.320100000000000051e+00 2.988230000000000164e+00 1.822419999999999929e+00 6.231010000000000382e+00 6.967179999999999929e+00 4.342000000000000026e-02 1.805600000000000094e+00 1.001770000000000049e+00 1.237800000000000011e-01 1.704229999999999912e+00 4.977179999999999715e+00 -1.477579999999999893e+00 4.541540000000000354e+00 1.001109999999999944e+00 -1.406239999999999934e+00 4.452119999999999855e+00 4.974549999999999805e+00 -3.013459999999999805e+00 7.275649999999999729e+00 9.965800000000000214e-01 -2.942320000000000046e+00 7.188659999999999606e+00 4.978659999999999641e+00 3.208050000000000068e+00 1.803500000000000103e+00 9.876599999999999824e-01 3.293439999999999923e+00 1.709130000000000038e+00 4.975399999999999601e+00 1.673429999999999973e+00 4.540840000000000209e+00 9.961299999999999599e-01 1.751880000000000104e+00 4.449029999999999596e+00 4.976659999999999862e+00 1.394900000000000029e-01 7.282790000000000319e+00 9.975100000000000078e-01 2.177300000000000069e-01 7.188439999999999941e+00 4.976740000000000386e+00 1.612389999999999990e+00 8.919799999999999951e-01 9.952199999999999935e-01 1.689429999999999987e+00 7.935200000000000031e-01 4.970209999999999795e+00 7.971999999999999920e-02 3.630180000000000184e+00 9.958799999999999875e-01 1.640099999999999891e-01 3.536430000000000184e+00 4.977599999999999802e+00 -1.452409999999999979e+00 6.363290000000000113e+00 9.920099999999999474e-01 -1.374959999999999960e+00 6.273080000000000211e+00 4.982339999999999769e+00 4.780470000000000219e+00 8.832799999999999541e-01 9.977599999999999802e-01 4.847870000000000346e+00 8.031399999999999650e-01 4.975109999999999921e+00 3.238519999999999843e+00 3.628319999999999990e+00 9.952600000000000335e-01 3.318249999999999922e+00 3.535680000000000156e+00 4.979589999999999961e+00 1.698590000000000044e+00 6.372790000000000177e+00 1.000620000000000065e+00 1.781779999999999919e+00 6.271090000000000053e+00 4.972459999999999880e+00 8.880000000000000393e-02 1.756639999999999979e+00 2.987810000000000077e+00 1.634799999999999864e-01 1.664500000000000091e+00 6.969809999999999839e+00 -1.445869999999999989e+00 4.497410000000000352e+00 2.991130000000000067e+00 -1.372500000000000053e+00 4.405660000000000132e+00 6.971980000000000288e+00 -2.982190000000000119e+00 7.231959999999999944e+00 2.988579999999999792e+00 -2.909699999999999953e+00 7.148970000000000269e+00 6.967579999999999885e+00 3.245179999999999954e+00 1.761290000000000022e+00 2.984609999999999985e+00 3.326769999999999783e+00 1.662919999999999954e+00 6.964909999999999712e+00 1.719640000000000057e+00 4.491369999999999862e+00 2.986769999999999925e+00 1.786059999999999981e+00 4.405120000000000147e+00 6.972640000000000171e+00 1.824300000000000088e-01 7.232890000000000263e+00 2.983659999999999979e+00 2.506999999999999784e-01 7.139780000000000015e+00 6.962769999999999904e+00
1.653270000000000017e+00 8.410499999999999643e-01 2.982180000000000053e+00 1.727130000000000054e+00 7.439299999999999802e-01 6.966350000000000264e+00 1.227300000000000058e-01 3.587720000000000020e+00 2.981259999999999799e+00 1.928400000000000114e-01 3.486159999999999926e+00 6.970110000000000028e+00 -1.413329999999999975e+00 6.328140000000000320e+00 2.987449999999999939e+00 -1.335530000000000106e+00 6.232630000000000337e+00 6.966990000000000016e+00 4.810399999999999565e+00 8.379600000000000382e-01 2.991150000000000198e+00 4.894269999999999676e+00 7.526100000000000012e-01 6.968619999999999592e+00 3.278430000000000177e+00 3.580330000000000013e+00 2.984659999999999869e+00 3.351890000000000036e+00 3.494769999999999932e+00 6.969839999999999591e+00 1.748480000000000034e+00 6.316370000000000040e+00 2.989279999999999937e+00 1.823010000000000019e+00 6.231230000000000047e+00 6.969059999999999810e+00 4.426000000000000073e-02 1.805229999999999890e+00 1.000340000000000007e+00 1.233100000000000029e-01 1.706429999999999891e+00 4.978530000000000122e+00 -1.475000000000000089e+00 4.540840000000000209e+00 1.001020000000000021e+00 -1.407629999999999937e+00 4.455219999999999736e+00 4.978830000000000311e+00 -3.014209999999999834e+00 7.277129999999999654e+00 9.968399999999999483e-01 -2.942849999999999966e+00 7.186149999999999594e+00 4.979269999999999641e+00 3.205119999999999969e+00 1.802969999999999962e+00 9.864500000000000490e-01 3.290470000000000006e+00 1.709060000000000024e+00 4.978889999999999816e+00 1.677689999999999904e+00 4.542029999999999568e+00 9.965699999999999559e-01 1.755689999999999973e+00 4.448179999999999801e+00 4.976589999999999847e+00 1.370800000000000074e-01 7.281170000000000364e+00 9.986099999999999977e-01 2.135700000000000098e-01 7.188889999999999780e+00 4.977420000000000400e+00 1.610999999999999988e+00 8.928899999999999615e-01 9.942600000000000326e-01 1.688530000000000086e+00 7.951599999999999779e-01 4.970119999999999649e+00 8.175999999999999934e-02 3.631040000000000045e+00 9.939900000000000402e-01 1.624400000000000011e-01 3.537939999999999863e+00 4.979759999999999742e+00 -1.452350000000000030e+00 6.363069999999999560e+00 9.918900000000000494e-01 -1.375350000000000072e+00 6.274670000000000414e+00 4.983480000000000132e+00 4.779880000000000351e+00 8.832699999999999996e-01 9.981900000000000217e-01 4.845329999999999693e+00 8.028600000000000181e-01 4.975019999999999776e+00 3.237229999999999830e+00 3.624379999999999935e+00 9.946099999999999941e-01 3.317359999999999864e+00 3.535699999999999843e+00 4.979569999999999830e+00 1.698539999999999939e+00 6.374950000000000117e+00 9.991600000000000481e-01 1.779670000000000085e+00 6.271569999999999645e+00 4.972000000000000419e+00 9.063000000000000222e-02 1.756019999999999914e+00 2.986299999999999955e+00 1.623199999999999921e-01 1.662970000000000059e+00 6.971289999999999765e+00 -1.442860000000000031e+00 4.500799999999999912e+00 2.990000000000000213e+00 -1.370659999999999989e+00 4.408079999999999998e+00 6.971020000000000216e+00 -2.982940000000000147e+00 7.231779999999999653e+00 2.986920000000000019e+00 -2.908889999999999976e+00 7.146910000000000096e+00 6.967769999999999797e+00 3.244709999999999983e+00 1.760890000000000066e+00 2.988539999999999974e+00 3.326449999999999907e+00 1.663680000000000048e+00 6.964430000000000121e+00 1.719850000000000101e+00 4.489499999999999602e+00 2.987260000000000026e+00 1.782210000000000072e+00 4.404309999999999725e+00 6.970860000000000056e+00 1.824500000000000011e-01 7.233640000000000292e+00 2.981469999999999843e+00 2.513000000000000234e-01 7.139579999999999593e+00 6.960709999999999731e+00