-3.813693189200000120e+02
-3.813628447799999890e+02
-3.869020709900000270e+02
-3.869038302800000224e+02
-3.801769137200000159e+02
-3.801799361500000032e+02
-3.857185144100000116e+02
-3.857205855500000098e+02
-3.831558408500000041e+02
-3.831507880099999852e+02
-3.806200112299999887e+02
-3.806382372799999985e+02
-3.769469957800000088e+02
-3.769400977700000226e+02
-3.798717739599999845e+02
-3.798660522800000194e+02
-3.874849939700000050e+02
-3.874814579900000240e+02
-3.852789877899999738e+02
-3.852718406299999856e+02
-3.834608464699999786e+02
-3.834630691599999750e+02
-3.790460558199999923e+02
-3.790403677499999731e+02
-3.832428349300000150e+02
-3.832395085699999981e+02
-3.735311643699999991e+02
-3.735366035700000111e+02
-3.784276741400000219e+02
-3.784244490099999894e+02
-3.872018662400000153e+02
-3.871976961799999799e+02
-3.777464877499999716e+02
-3.777407222900000079e+02
-3.833366478600000278e+02
-3.833481096200000025e+02
-3.832529205100000240e+02
-3.832535885099999859e+02
-3.844985212600000182e+02
-3.844936249200000020e+02
-3.820014363700000217e+02
-3.819971381099999803e+02
-3.803025030599999923e+02
-3.803038735299999757e+02
-3.822357933600000024e+02
-3.822518229099999871e+02
-3.832700928300000101e+02
-3.832589281099999994e+02
-3.767993102600000270e+02
-3.767895859600000108e+02
-3.780689925600000265e+02
-3.780497267599999986e+02
-3.788624556999999982e+02
-3.788531864199999859e+02
-3.850565803700000060e+02
-3.850429072800000085e+02
-3.778936463300000241e+02
-3.778844058799999743e+02
-3.814464867300000037e+02
-3.814347962499999767e+02
-3.886547641500000054e+02
-3.886499625600000059e+02
-3.894407220599999846e+02
-3.894382623299999864e+02
-3.859916974199999800e+02
-3.859942120900000191e+02
-3.893574371500000098e+02
-3.893518993100000216e+02
-3.883718948999999725e+02
-3.883720369900000264e+02
-3.887719657299999767e+02
-3.887690738000000010e+02
-3.881632933899999784e+02
-3.881503187299999809e+02
-3.881414997100000051e+02
-3.881277499199999852e+02
-3.888537097799999742e+02
-3.888443753799999740e+02
-3.893298206599999958e+02
-3.893286995999999931e+02
-3.879476713899999822e+02
-3.879495062699999721e+02
-3.877138053900000045e+02
-3.877212599900000214e+02
-3.873092133299999773e+02
-3.872940008799999987e+02
-3.858000793900000076e+02
-3.857921333699999877e+02
-3.842283236600000009e+02
-3.842367471100000103e+02
-3.878784940200000051e+02
-3.878813961899999754e+02
-3.862326853100000221e+02
-3.862225938099999780e+02
-3.877268157299999984e+02
-3.877285558199999969e+02
-3.865348781199999735e+02
-3.865362518300000261e+02
-3.884335246800000050e+02
-3.884195149399999991e+02
-3.874529749499999980e+02
-3.874512582500000235e+02
-3.875392413700000134e+02
-3.875356278500000258e+02
-3.893247448399999939e+02
-3.893203737200000205e+02
-3.882761844300000007e+02
-3.882736949999999752e+02
-3.894367124300000000e+02
-3.894330029100000274e+02
-3.889542561000000092e+02
-3.889512208300000111e+02
-3.843317953399999851e+02
-3.843324575299999992e+02
-3.890630977899999721e+02
-3.890592751400000111e+02
-3.878039153400000032e+02
-3.878083870899999965e+02
-3.862356622300000026e+02
-3.862342010599999753e+02
-3.899131157499999745e+02
-3.899085097099999757e+02
-3.897242518300000143e+02
-3.897185753399999726e+02
-3.891348073199999931e+02
-3.891332885200000078e+02
-3.887120900400000210e+02
-3.887065068100000076e+02
-3.894819437599999787e+02
-3.894734864700000116e+02
-3.891158956799999942e+02
-3.891087095099999829e+02
-3.875013352199999872e+02
-3.874905867200000102e+02
-3.887028259300000173e+02
-3.887025163299999804e+02
-3.889964234000000260e+02
-3.889851245300000073e+02
-3.889248188299999924e+02
-3.889291578099999924e+02
-3.892724417300000255e+02
-3.892886142199999995e+02
-3.897205296600000111e+02
-3.897170169500000156e+02
-3.892273403300000041e+02
-3.892269049700000210e+02
-3.891759284500000149e+02
-3.891675597099999777e+02
-3.889085591099999988e+02
-3.889051882499999806e+02
-3.878170317199999886e+02
-3.878146210599999790e+02
-3.894399256899999955e+02
-3.894445159300000228e+02
-3.884588396099999841e+02
-3.884551079600000207e+02
-3.889098939200000018e+02
-3.889017390800000271e+02
-3.888738894800000025e+02
-3.888706229000000008e+02
-3.889521357099999932e+02
-3.889471887600000173e+02
-3.892156764100000146e+02
-3.892216920999999843e+02
-3.886471801600000049e+02
-3.886375233300000218e+02
-3.889688083500000175e+02
-3.889665470300000152e+02
-3.891763760299999717e+02
-3.891741992999999979e+02
-3.890790227900000104e+02
-3.890776046700000279e+02
-3.894463982799999826e+02
-3.894434997100000260e+02
-3.890809051499999782e+02
-3.890883233900000278e+02
-3.894669987600000240e+02
-3.894671324799999752e+02
-3.892302646499999810e+02
-3.892267948900000079e+02
-3.888217714300000125e+02
-3.888171683200000075e+02
-3.889944320000000175e+02
-3.889853840299999774e+02
-3.892029065400000150e+02
-3.892006132700000194e+02
-3.884426553199999717e+02
-3.884354156599999897e+02
-3.892485845599999834e+02
-3.892476969599999848e+02
-3.885362748100000090e+02
-3.885310434400000190e+02
-3.870382426200000054e+02
-3.870333466999999814e+02
-3.889183453399999735e+02
-3.889160406899999884e+02
-3.893310676400000148e+02
-3.893225931000000060e+02
-3.896539148100000034e+02
-3.896507618100000059e+02
-3.874620209299999942e+02
-3.874595215499999767e+02
-3.867492505000000165e+02
-3.867447756400000003e+02
-3.863694248200000061e+02
-3.863645910000000185e+02
-3.873222500300000206e+02
-3.873219001400000252e+02
-3.870170871899999838e+02
-3.870138287500000160e+02
-3.868026699999999778e+02
-3.868000661199999968e+02
-3.884983060399999886e+02
-3.884959849800000029e+02
-3.895748179000000277e+02
-3.895685695600000145e+02
-3.884838660699999764e+02
-3.884860599599999773e+02
-3.882197000499999717e+02
-3.882172154599999772e+02
-3.863086809100000210e+02
-3.863036567899999909e+02
-3.870115750300000173e+02
-3.870105908500000282e+02
-3.873931692699999871e+02
-3.873937078199999746e+02
-3.891451794199999767e+02
-3.891425521099999969e+02
-3.873346321299999886e+02
-3.873317996200000266e+02
-3.890724714899999981e+02
-3.890690685499999972e+02
-3.893621436999999901e+02
-3.893570947200000205e+02
-3.895009827599999994e+02
-3.894954598099999998e+02
-3.887158543300000133e+02
-3.887111884000000259e+02
-3.886400376000000279e+02
-3.886389049399999749e+02
-3.836063611700000138e+02
-3.836031808100000262e+02
-3.870711987799999747e+02
-3.870702641199999903e+02
-3.801060524600000008e+02
-3.801030334100000232e+02
-3.817856092000000103e+02
-3.817818185099999937e+02
-3.786573190500000123e+02
-3.786532806100000244e+02
-3.850553476800000112e+02
-3.850535204399999998e+02
-3.857658618599999727e+02
-3.857626460199999769e+02
-3.844511331900000073e+02
-3.844541630400000258e+02
-3.842237999999999829e+02
-3.842193353399999864e+02
-3.801433556000000067e+02
-3.801369023099999822e+02
-3.837644563800000128e+02
-3.837614665899999977e+02
-3.821976305000000025e+02
-3.821968592299999727e+02
-3.849954048700000158e+02
-3.849919260699999768e+02
-3.776486207300000046e+02
-3.776452374799999916e+02
-3.786034083499999952e+02
-3.786020681900000113e+02
-3.858811676999999918e+02
-3.858760975600000052e+02
-3.826426503700000126e+02
-3.826378161100000170e+02
-3.857641086799999925e+02
-3.857586596400000190e+02
-3.824447089700000220e+02
-3.824369180099999994e+02
-3.862798219499999846e+02
-3.862768459399999870e+02
-3.849366178000000218e+02
-3.849332968499999765e+02
-3.820318315600000005e+02
-3.820308316200000149e+02
-3.858108671300000196e+02
-3.858144214600000055e+02
-3.830044494800000052e+02
-3.830004968700000063e+02
-3.838831462599999895e+02
-3.838821984799999996e+02
-3.831781739300000140e+02
-3.831796567399999844e+02
-3.782096831800000132e+02
-3.782083054400000037e+02
-3.852788501100000076e+02
-3.852754443499999866e+02
-3.806022744100000068e+02
-3.806014075400000252e+02
-3.789235512100000278e+02
-3.789151746499999831e+02
