1.350000048788033364e-04 1.599995883504319697e-05 -9.999999999999999547e-07 1.340000045738777936e-04 1.499995913996884355e-05 9.999999999999999547e-07 7.000029882708518156e-06 9.799999786551623143e-05 -3.000000000000000076e-06 6.000029272857363818e-06 9.599999817044193163e-05 3.000000000000000076e-06 1.370000027443240241e-04 8.999958225192321998e-06 -9.999999999999999547e-07 1.350000027443241382e-04 8.999958835043521486e-06 3.000000000000000076e-06 1.320000039640266811e-04 1.299995974982013673e-05 0.000000000000000000e+00 1.330000045738778235e-04 1.499995944489444330e-05 0.000000000000000000e+00 5.000029272857410662e-06 9.599999847536753138e-05 -1.999999999999999909e-06 6.000029577782964409e-06 9.699999817044188818e-05 3.000000000000000076e-06 1.330000021344730256e-04 6.999959444894815508e-06 -1.999999999999999909e-06 1.350000024393985384e-04 7.999958835043568330e-06 3.000000000000000076e-06 -1.360000042689520799e-04 -1.399995853011768922e-05 9.999999999999999547e-07 -1.360000042689520799e-04 -1.399995853011768922e-05 -9.999999999999999547e-07 -7.000030187634117900e-06 -9.899999786551618797e-05 1.999999999999999909e-06 -8.000029577782871568e-06 -9.699999756059068869e-05 -1.999999999999999909e-06 -1.370000030492496239e-04 -9.999958225192275154e-06 0.000000000000000000e+00 -1.360000039640264801e-04 -1.299995853011773437e-05 -9.999999999999999547e-07 -1.340000036591009944e-04 -1.199995913996898239e-05 3.000000000000000076e-06 -1.340000036591009944e-04 -1.199995913996898239e-05 -3.000000000000000076e-06 -5.000029272857410662e-06 -9.599999847536753138e-05 1.999999999999999909e-06 -4.000028967931856068e-06 -9.499999878029318813e-05 -3.000000000000000076e-06 -1.300000030492499416e-04 -9.999960359671478444e-06 1.999999999999999909e-06 -1.300000030492499416e-04 -9.999960359671478444e-06 -3.000000000000000076e-06 1.310000051837291370e-04 1.699996005474555249e-05 -9.999999999999999547e-07 1.310000045738779375e-04 1.499996005474564448e-05 9.999999999999999547e-07 1.200003049255948681e-05 9.999999634088814579e-05 9.999999999999999547e-07 1.200003049255948681e-05 9.999999634088814579e-05 -9.999999999999999547e-07 1.320000006098450839e-04 1.999959749820648625e-06 9.999999999999999547e-07 1.320000009147706836e-04 2.999959749820602204e-06 -9.999999999999999547e-07 1.290000048788035971e-04 1.599996066459679882e-05 3.999999999999999819e-06 1.290000048788035971e-04 1.599996066459679882e-05 -3.999999999999999819e-06 9.000030187634025907e-06 9.899999725566498848e-05 5.000000000000000409e-06 1.000003018763398076e-05 9.899999695073938874e-05 -5.000000000000000409e-06 1.320000003049194841e-04 9.999597498206952566e-07 1.999999999999999909e-06 1.330000006098450269e-04 1.999959444895048457e-06 -1.999999999999999909e-06 -1.340000006098449970e-04 -1.999959139969447866e-06 -9.999999999999999547e-07 -1.320000006098450839e-04 -1.999959749820648625e-06 9.999999999999999547e-07 -1.200003110241068800e-05 -1.019999963408880453e-04 -3.000000000000000076e-06 -1.100003049255953366e-05 -9.999999664581374554e-05 3.000000000000000076e-06 -1.290000045738779974e-04 -1.499996066459684566e-05 -1.999999999999999909e-06 -1.280000042689524546e-04 -1.399996096952249225e-05 1.999999999999999909e-06 -1.310000003049195411e-04 -9.999600547462956359e-07 0.000000000000000000e+00 -1.330000003049194271e-04 -9.999594448950948773e-07 0.000000000000000000e+00 -1.000003140733638143e-05 -1.029999969507392014e-04 -3.999999999999999819e-06 -1.100003171226193602e-05 -1.039999966458135446e-04 3.999999999999999819e-06 -1.310000036591011383e-04 -1.199996005474578501e-05 9.999999999999999547e-07 -1.320000042689522808e-04 -1.399995974982008989e-05 0.000000000000000000e+00
-2.763299834364285612e-02 5.432008426008864792e-03 5.419000000000000206e-03 -3.779599524346380357e-02 1.559901152496726874e-02 -2.713000000000000134e-02 1.730200213478332721e-02 7.000994724176935399e-03 1.807000000000000012e-03 -6.001001913102939345e-03 -6.273998170141180039e-03 1.716200000000000017e-02 -9.544298642409798639e-02 4.452202910301201327e-02 2.020000000000000040e-04 -2.678300500626726657e-02 -1.641799183317687802e-02 9.725200000000000511e-02 -7.914404096614090223e-02 -1.343479758669620105e-01 6.131600000000000245e-02 -3.132400644368633913e-02 -2.113199044850951058e-02 3.388100000000000139e-02 2.038100996893170772e-02 3.269299378530981376e-02 -1.669599999999999904e-02 3.527798626096557977e-02 -4.505701075716323639e-02 9.343899999999999428e-02 7.584037593057223192e-03 1.232859976874385172e-01 6.224000000000000365e-03 1.123719975770559598e-01 -7.946034265099202396e-03 -7.548699999999999855e-02 -1.063480324297474411e-01 -1.063529675717673068e-01 5.271699999999999997e-02 -1.745501178476379506e-02 -3.864799467752184914e-02 4.278599999999999764e-02 3.951699782221952673e-02 -7.142012049744620415e-03 -7.165799999999999947e-02 1.154739852458645383e-01 -4.838603521097653570e-02 -6.325400000000000467e-02 6.758952927415043561e-03 -1.543740020609849772e-01 -6.206999999999999844e-03 -7.648983573047698527e-03 5.387200233237341568e-02 -7.239800000000000402e-02 7.858100126177848532e-02 4.137976038641199422e-03 -9.641399999999999970e-02 -3.668801724384592594e-02 -5.655098881288693480e-02 -6.744600000000000595e-02 5.766099814940384843e-02 -6.069017582314764452e-03 -1.695699999999999985e-02 -1.276159765274312297e-01 7.697803891338185489e-02 3.463299999999999712e-02 -1.121819930357990103e-01 2.283903420716264926e-02 2.392999999999999988e-02 7.797600383778999222e-02 1.258597622312079486e-02 8.864400000000000057e-02 -7.780972475890314717e-03 9.026500237262190252e-02 -3.956099999999999894e-02 1.270569955672906648e-01 -1.453703874293133837e-02 3.035500000000000004e-02 -2.855098861133242502e-02 3.734900870592908206e-02 -5.797000000000000069e-03 -1.298869884195295310e-01 3.797803960586969285e-02 1.616899999999999935e-02 4.212401714809903969e-02 5.623698715531139092e-02 -1.941400000000000070e-02 -3.023500064644087104e-02 -2.119990780574372048e-03 2.770000000000000110e-04 2.741801786040592298e-02 5.857299163954716309e-02 -5.119300000000000239e-02 -9.317498839147805856e-02 3.807002841144104671e-02 1.960800000000000043e-02 -5.775800080500090306e-02 -2.639982388107046853e-03 -2.246300000000000033e-02 1.373289734827486397e-01 -8.696304187512374217e-02 -6.079699999999999688e-02 6.817900231224766072e-02 7.582979210477134961e-03 -2.227000000000000160e-02 -8.458500177405320342e-02 -5.817974207867816772e-03 -6.350699999999999401e-02 1.407090354509487051e-01 1.162609570942182841e-01 -4.685600000000000181e-02 1.993801043333342030e-02 3.421599392039179066e-02 -2.868000000000000063e-02 -5.142501508832617030e-02 -4.948198431919869494e-02 8.253199999999999426e-02 1.725400778901873405e-02 2.554399473881250118e-02 -8.500000000000000611e-05 1.761696911621959266e-02 -1.012830053718695861e-01 3.662300000000000277e-02 -1.553900476202238132e-02 -1.561699526176036842e-02 1.201299999999999937e-02 3.602010845288664258e-03 3.556699890165633537e-02 9.411600000000000521e-02 3.901199051315290545e-02 -3.111201189575607887e-02 2.521500000000000130e-02 2.413596652435168882e-02 -1.097830073596791911e-01 2.068199999999999900e-02 -6.380798791152654525e-02 3.964401945669086824e-02 1.420399999999999961e-02 7.785300825158807114e-02 2.706097626062597267e-02 -2.874700000000000172e-02 -3.647998034235962195e-02 6.446701112368290187e-02 -8.078999999999999376e-03
-4.290860000000000229e-01 -8.348999999999999477e-02 -3.117599999999999885e-02 -4.776039999999999730e-01 -3.848999999999999991e-03 1.165410000000000057e-01 -4.273029999999999884e-01 -1.043400000000000022e-01 -3.867600000000000204e-02 -4.688459999999999850e-01 -1.407710000000000072e-01 -2.616800000000000029e-02 -4.398170000000000135e-01 -2.130390000000000061e-01 -3.154900000000000065e-02 -4.201989999999999892e-01 -2.572220000000000062e-01 -9.129999999999999227e-03 -4.709340000000000193e-01 -1.025989999999999958e-01 -2.174299999999999844e-02 -4.189080000000000026e-01 -1.170910000000000006e-01 9.783999999999999295e-03 -5.244560000000000333e-01 5.233999999999999937e-03 -3.428199999999999997e-02 -4.234169999999999878e-01 -2.030430000000000013e-01 -1.778999999999999982e-03 -4.937540000000000262e-01 -1.213029999999999942e-01 -2.130090000000000039e-01 -6.931690000000000351e-01 -2.264849999999999919e-01 2.878500000000000156e-02 4.151980000000000115e-01 1.203169999999999934e-01 -1.184200000000000010e-02 3.689180000000000237e-01 1.787860000000000005e-01 -7.539400000000000268e-02 5.521610000000000129e-01 1.860920000000000074e-01 1.137499999999999969e-02 6.410029999999999895e-01 3.602400000000000047e-02 1.242000000000000048e-02 4.259640000000000093e-01 2.338949999999999918e-01 9.161199999999999899e-02 5.607569999999999499e-01 6.484299999999999786e-02 -2.981699999999999975e-02 4.482889999999999930e-01 1.372879999999999934e-01 4.609999999999999840e-04 6.140320000000000222e-01 2.869180000000000064e-01 -6.189900000000000263e-02 4.350939999999999808e-01 1.230789999999999940e-01 1.175100000000000033e-01 3.805669999999999886e-01 -3.557999999999999965e-03 -9.948000000000000245e-03 5.886810000000000098e-01 1.255799999999999972e-01 9.371300000000000463e-02 4.569550000000000001e-01 1.372460000000000069e-01 1.966700000000000045e-02 -2.953509999999999747e-01 -3.502629999999999910e-01 3.526900000000000174e-02 -3.430819999999999981e-01 -1.343260000000000010e-01 -8.457499999999999740e-02 -4.301440000000000263e-01 -1.034299999999999976e-02 3.536000000000000254e-02 -3.028759999999999786e-01 -2.807199999999999973e-02 7.046000000000000180e-03 -4.123459999999999903e-01 -1.954019999999999924e-01 -2.538599999999999884e-02 -4.845360000000000222e-01 1.076590000000000047e-01 6.118000000000000174e-03 -4.187839999999999896e-01 -8.856400000000000383e-02 6.086099999999999843e-02 -5.339890000000000470e-01 -3.370520000000000183e-01 -5.303299999999999681e-02 -4.664300000000000113e-01 -1.419779999999999931e-01 -6.252499999999999725e-02 -5.774010000000000531e-01 -2.001940000000000108e-01 2.570400000000000115e-02 -3.414059999999999873e-01 -1.615590000000000082e-01 -2.015349999999999919e-01 -3.355770000000000142e-01 -5.526799999999999768e-02 1.571019999999999917e-01 4.530279999999999863e-01 2.056499999999999995e-02 1.780699999999999991e-02 4.532849999999999935e-01 1.136889999999999984e-01 6.543899999999999717e-02 3.624009999999999732e-01 1.880179999999999907e-01 -4.694600000000000162e-02 3.816860000000000253e-01 1.927260000000000084e-01 3.279200000000000170e-02 4.656440000000000023e-01 1.960590000000000110e-01 1.000540000000000040e-01 3.106380000000000252e-01 1.750089999999999979e-01 6.325100000000000167e-02 3.461009999999999920e-01 -1.623330000000000051e-01 -4.288899999999999657e-02 2.963049999999999851e-01 1.263050000000000006e-01 2.461199999999999846e-02 4.219280000000000252e-01 2.147599999999999856e-02 5.730400000000000077e-02 4.404020000000000157e-01 2.940929999999999933e-01 -6.593799999999999661e-02 2.270399999999999918e-01 2.847830000000000084e-01 7.848299999999999721e-02 5.833720000000000017e-01 8.645200000000000107e-02 -8.986800000000000344e-02
-3.924090000000000078e-01 -5.365000000000000324e-02 -4.204399999999999804e-02 -4.683249999999999913e-01 -4.640000000000000027e-03 1.579450000000000021e-01 -4.673809999999999909e-01 3.671999999999999917e-03 2.441799999999999873e-02 -5.262270000000000003e-01 -2.201970000000000038e-01 -9.634999999999999468e-03 -5.305560000000000276e-01 -2.828530000000000211e-01 1.538699999999999964e-02 -4.377840000000000065e-01 -2.230439999999999923e-01 4.367399999999999755e-02 -5.209819999999999451e-01 -1.129249999999999976e-01 5.860800000000000037e-02 -3.340250000000000163e-01 -6.856399999999999995e-02 4.033899999999999986e-02 -5.173959999999999670e-01 1.060279999999999972e-01 3.835100000000000314e-02 -3.561799999999999966e-01 -8.294700000000000684e-02 -3.599700000000000122e-02 -5.101139999999999564e-01 -1.074630000000000030e-01 -1.744259999999999977e-01 -6.753460000000000019e-01 -2.053449999999999998e-01 -3.481200000000000266e-02 4.947429999999999883e-01 1.768540000000000112e-01 -1.138979999999999992e-01 3.228059999999999818e-01 1.722960000000000047e-01 -7.071099999999999608e-02 4.973279999999999923e-01 1.753949999999999954e-01 -3.764800000000000091e-02 4.915289999999999937e-01 -6.309599999999999931e-02 -4.273300000000000015e-02 4.374480000000000035e-01 3.010090000000000265e-01 1.545499999999999999e-02 5.301719999999999766e-01 8.419599999999999307e-02 -2.795000000000000175e-03 3.419949999999999934e-01 9.606099999999999361e-02 -8.666300000000000392e-02 5.183790000000000342e-01 2.261809999999999932e-01 -7.066400000000000459e-02 4.320519999999999916e-01 1.585189999999999932e-01 1.527449999999999919e-01 2.508090000000000042e-01 -3.614599999999999758e-02 1.298400000000000075e-02 5.821969999999999645e-01 2.554800000000000126e-02 5.172199999999999714e-02 5.713319999999999510e-01 2.292029999999999901e-01 4.492800000000000266e-02 -2.651700000000000168e-01 -4.226210000000000244e-01 6.234599999999999864e-02 -2.963250000000000051e-01 -1.181419999999999970e-01 -1.107930000000000026e-01 -3.765539999999999998e-01 -4.614499999999999852e-02 6.180999999999999689e-02 -1.060289999999999982e-01 -1.012700000000000058e-02 -3.750300000000000161e-02 -3.430719999999999881e-01 -1.677309999999999912e-01 -3.674700000000000188e-02 -5.730229999999999491e-01 1.292750000000000010e-01 2.176900000000000016e-02 -4.224479999999999902e-01 -1.515920000000000045e-01 5.926900000000000224e-02 -4.813830000000000053e-01 -3.967300000000000271e-01 -7.044300000000000561e-02 -4.915630000000000277e-01 -7.809399999999999675e-02 -4.754200000000000093e-02 -4.798950000000000160e-01 -1.529129999999999934e-01 -1.665900000000000020e-02 -3.486859999999999959e-01 -1.833029999999999937e-01 -2.358320000000000138e-01 -3.258139999999999925e-01 -6.363199999999999412e-02 1.535279999999999978e-01 4.713089999999999780e-01 2.060000000000000026e-02 3.735000000000000125e-02 3.724250000000000060e-01 6.594600000000000461e-02 3.397200000000000220e-02 3.937430000000000097e-01 1.419459999999999888e-01 -7.051499999999999435e-02 3.224460000000000104e-01 2.247810000000000086e-01 7.064499999999999946e-02 4.820940000000000225e-01 2.006539999999999990e-01 9.913900000000000490e-02 3.195009999999999795e-01 1.558120000000000061e-01 7.797300000000000064e-02 3.626329999999999831e-01 -1.919980000000000020e-01 -2.338200000000000001e-02 3.061189999999999745e-01 4.765099999999999891e-02 1.353200000000000063e-02 4.381720000000000059e-01 -6.221899999999999653e-02 5.725700000000000234e-02 4.834720000000000129e-01 3.264219999999999899e-01 -2.681700000000000056e-02 2.379199999999999926e-01 3.350560000000000205e-01 5.017300000000000232e-02 5.860090000000000021e-01 1.030419999999999947e-01 -5.706200000000000161e-02
-6.819899999999999574e-02 -8.608789999999999498e-01 -9.103300000000000280e-02 -9.458700000000000441e-02 -5.584940000000000460e-01 1.484620000000000106e-01 -7.551800000000000179e-02 -8.066950000000000509e-01 1.290200000000000027e-02 -2.386000000000000065e-01 -5.772570000000000201e-01 -1.342949999999999977e-01 -8.585800000000000376e-02 -4.839160000000000128e-01 -1.125410000000000021e-01 -4.651899999999999785e-02 -6.977280000000000149e-01 2.325400000000000036e-02 -3.464500000000000218e-02 -6.650430000000000508e-01 6.261600000000000499e-02 -2.457900000000000085e-01 -6.319080000000000252e-01 8.104000000000000092e-02 -9.173999999999999863e-03 -7.004219999999999891e-01 1.332349999999999923e-01 -1.422400000000000053e-02 -5.981950000000000323e-01 3.892799999999999733e-02 9.903999999999999609e-03 -5.659399999999999986e-01 1.245229999999999948e-01 -1.647200000000000053e-01 -6.193530000000000424e-01 1.242800000000000016e-01 -1.116329999999999961e-01 5.411259999999999959e-01 7.885399999999999354e-02 4.082999999999999824e-03 7.198729999999999851e-01 -5.832600000000000284e-02 -8.167399999999999660e-02 4.024760000000000004e-01 -6.633899999999999519e-02 8.023199999999999776e-02 4.736759999999999859e-01 3.571200000000000069e-02 7.738299999999999346e-02 7.057390000000000052e-01 8.710600000000000287e-02 2.813900000000000082e-02 6.211529999999999552e-01 -9.884999999999999343e-02 6.964800000000000157e-02 5.472289999999999655e-01 -1.158799999999999934e-02 1.797880000000000034e-01 4.301349999999999896e-01 -6.097600000000000242e-02 -6.318899999999999517e-02 7.186960000000000015e-01 -5.447799999999999865e-02 1.021200000000000024e-01 5.940630000000000077e-01 -2.593499999999999972e-02 -5.043399999999999966e-02 7.669719999999999871e-01 -1.434960000000000124e-01 7.521899999999999420e-02 7.409379999999999855e-01 -6.765100000000000280e-02 8.612499999999999323e-02 -6.735959999999999726e-01 -4.537399999999999767e-02 8.018000000000000821e-03 -5.748590000000000089e-01 1.019970000000000043e-01 -5.730099999999999777e-02 -4.606770000000000032e-01 7.371800000000000574e-02 1.589530000000000109e-01 -5.688199999999999923e-01 -3.146800000000000291e-02 -1.258029999999999982e-01 -4.797919999999999963e-01 8.885600000000000442e-02 -1.710949999999999971e-01 -4.493659999999999877e-01 -7.715900000000000536e-02 -1.262749999999999984e-01 -4.415479999999999960e-01 -7.553300000000000292e-02 -2.205920000000000103e-01 -5.446860000000000035e-01 -4.565199999999999814e-02 2.722459999999999880e-01 -3.880040000000000155e-01 3.635000000000000210e-03 -3.602629999999999999e-01 -3.306700000000000195e-01 -2.216600000000000167e-02 7.881699999999999817e-02 -6.808589999999999920e-01 -1.574859999999999871e-01 1.219540000000000068e-01 -5.733620000000000383e-01 1.120799999999999921e-02 9.673099999999999754e-02 7.461590000000000167e-01 3.433900000000000147e-02 3.737289999999999779e-01 4.790929999999999911e-01 1.937699999999999839e-02 -1.044540000000000052e-01 6.675560000000000382e-01 -1.355439999999999978e-01 2.411299999999999902e-02 6.067860000000000475e-01 1.667899999999999938e-01 2.121639999999999915e-01 6.113920000000000465e-01 -5.873799999999999855e-02 5.467299999999999938e-02 5.897740000000000204e-01 -8.874999999999999209e-03 8.404200000000000559e-02 6.179489999999999705e-01 -9.045499999999999374e-02 1.181699999999999938e-02 4.394250000000000100e-01 -4.122699999999999976e-02 2.016679999999999862e-01 3.905460000000000043e-01 1.557320000000000093e-01 1.584450000000000025e-01 5.897409999999999597e-01 -9.800899999999999890e-02 -1.845579999999999998e-01 4.962090000000000112e-01 1.344599999999999962e-01 1.650560000000000083e-01 4.353549999999999920e-01 7.218499999999999917e-02
-1.934589999999999921e-01 -7.743100000000000538e-01 -7.115100000000000591e-02 -1.381060000000000065e-01 -5.822580000000000533e-01 1.485760000000000136e-01 -9.130000000000000615e-02 -7.845239999999999991e-01 -1.126130000000000048e-01 -2.692849999999999966e-01 -6.521989999999999732e-01 -5.121799999999999964e-02 -6.141499999999999737e-02 -3.473029999999999728e-01 -1.534609999999999863e-01 -1.162829999999999975e-01 -7.035540000000000127e-01 -1.909000000000000107e-03 -4.022799999999999987e-02 -6.137080000000000313e-01 -7.241000000000000214e-02 -2.128150000000000042e-01 -7.206690000000000040e-01 6.466399999999999926e-02 3.628599999999999881e-02 -6.837229999999999697e-01 6.754100000000000381e-02 -3.429999999999999716e-02 -5.764690000000000092e-01 9.908999999999999753e-02 1.350979999999999959e-01 -4.248770000000000047e-01 2.987770000000000148e-01 -1.382410000000000028e-01 -6.098789999999999489e-01 1.270699999999999885e-01 -2.249400000000000011e-02 5.154760000000000453e-01 1.657160000000000022e-01 3.110089999999999799e-01 7.407470000000000443e-01 -6.436699999999999366e-02 -6.900100000000000677e-02 3.152289999999999814e-01 -1.119109999999999966e-01 -2.266400000000000012e-02 5.725839999999999819e-01 2.462900000000000159e-02 8.225799999999999779e-02 7.088619999999999921e-01 1.481719999999999982e-01 -5.217900000000000316e-02 5.708299999999999486e-01 -1.938290000000000013e-01 1.005100000000000021e-01 5.223870000000000458e-01 4.249300000000000299e-02 9.773199999999999943e-02 4.263959999999999972e-01 -1.435599999999999932e-01 -1.636070000000000024e-01 6.293990000000000418e-01 -1.289839999999999876e-01 1.610109999999999875e-01 6.134330000000000060e-01 -2.470599999999999880e-02 -2.464300000000000171e-02 7.872010000000000396e-01 -1.285979999999999901e-01 7.803300000000000514e-02 6.841359999999999664e-01 -9.058599999999999985e-02 4.524000000000000243e-03 -6.600219999999999976e-01 -1.194759999999999989e-01 -7.429900000000000393e-02 -4.687819999999999765e-01 8.564499999999999891e-02 -6.838999999999999593e-03 -4.057919999999999860e-01 1.077089999999999992e-01 2.037460000000000104e-01 -6.413980000000000237e-01 -6.956000000000000377e-03 -1.990550000000000097e-01 -3.963650000000000229e-01 8.411899999999999933e-02 -1.267330000000000123e-01 -4.762790000000000079e-01 -3.885999999999999871e-02 -1.511129999999999973e-01 -3.776149999999999785e-01 -8.649400000000000144e-02 -3.092329999999999801e-01 -6.361860000000000293e-01 1.657199999999999993e-02 3.322990000000000110e-01 -4.080759999999999943e-01 3.116599999999999926e-02 -3.750220000000000220e-01 -3.024459999999999926e-01 -4.105600000000000221e-02 7.507900000000000684e-02 -6.751000000000000334e-01 -2.295840000000000103e-01 1.067059999999999953e-01 -5.736989999999999590e-01 -4.736999999999999891e-03 1.574859999999999871e-01 6.996989999999999599e-01 2.020299999999999874e-02 3.024749999999999939e-01 5.017690000000000206e-01 6.290999999999999370e-02 -1.478250000000000119e-01 5.430519999999999792e-01 -5.315700000000000286e-02 2.768100000000000074e-02 5.908379999999999743e-01 1.565560000000000007e-01 2.065919999999999979e-01 4.548980000000000246e-01 -2.777500000000000108e-02 7.994700000000000417e-02 5.750030000000000419e-01 5.509900000000000214e-02 1.222229999999999983e-01 6.701949999999999852e-01 -5.988700000000000273e-02 5.085499999999999743e-02 5.095429999999999682e-01 4.767000000000000404e-03 2.168170000000000097e-01 2.944649999999999768e-01 1.445859999999999923e-01 2.059729999999999894e-01 6.805039999999999978e-01 -1.270820000000000005e-01 -2.637740000000000085e-01 4.044039999999999857e-01 1.574909999999999921e-01 2.096030000000000115e-01 4.842839999999999923e-01 3.043099999999999972e-02
4.332289999999999752e-01 8.737000000000000322e-02 3.312199999999999867e-02 4.453799999999999981e-01 1.938410000000000133e-01 5.420900000000000024e-02 2.714230000000000254e-01 -1.972980000000000012e-01 9.464999999999999802e-02 4.106079999999999730e-01 1.313699999999999868e-01 -5.725700000000000234e-02 4.364609999999999879e-01 -2.513170000000000126e-01 4.157199999999999784e-02 1.650510000000000033e-01 -1.155940000000000023e-01 3.073800000000000143e-02 4.662649999999999850e-01 7.741299999999999570e-02 -8.403800000000000159e-02 3.290930000000000244e-01 -9.226299999999999779e-02 -4.147900000000000198e-02 4.967639999999999834e-01 -5.408400000000000013e-02 -1.576200000000000170e-02 4.912159999999999860e-01 -7.786899999999999378e-02 -4.777300000000000296e-02 3.996439999999999992e-01 -8.043100000000000249e-02 -5.207200000000000023e-02 2.447449999999999903e-01 -6.909200000000000064e-02 2.454200000000000131e-02 -1.999440000000000106e-01 -3.577799999999999730e-02 -6.760099999999999443e-02 -2.816159999999999775e-01 2.393770000000000064e-01 -3.433300000000000241e-02 -6.236019999999999897e-01 2.186000000000000009e-03 -9.016299999999999315e-02 -3.528149999999999897e-01 -1.143969999999999987e-01 7.850799999999999446e-02 -5.842340000000000311e-01 1.619400000000000006e-01 -3.544100000000000028e-02 -3.699200000000000266e-01 -7.575400000000000189e-02 -2.663199999999999942e-02 -3.025129999999999764e-01 -2.223699999999999982e-02 1.451349999999999862e-01 -7.120429999999999815e-01 1.298199999999999910e-01 4.892300000000000121e-02 -3.414470000000000005e-01 1.315129999999999910e-01 4.060000000000000024e-04 -2.968330000000000135e-01 -2.129100000000000090e-02 5.023999999999999994e-02 -3.930330000000000212e-01 -7.268700000000000161e-02 -4.045100000000000084e-02 -3.538600000000000079e-01 6.368300000000000349e-02 1.765200000000000102e-02 3.407899999999999818e-01 -1.359720000000000095e-01 -1.682799999999999921e-02 4.019070000000000142e-01 5.603000000000000341e-02 7.959199999999999608e-02 3.841899999999999760e-01 -8.984599999999999531e-02 4.420400000000000024e-02 1.410639999999999949e-01 -1.005879999999999969e-01 -1.528700000000000024e-02 3.109000000000000097e-01 9.625000000000000222e-02 9.970600000000000296e-02 2.732740000000000169e-01 1.222870000000000068e-01 -1.227069999999999966e-01 5.998099999999999959e-02 1.681169999999999887e-01 -2.536599999999999966e-02 4.764180000000000081e-01 -3.139669999999999961e-01 -5.681000000000000286e-03 4.069579999999999864e-01 7.513999999999999846e-03 -3.974400000000000155e-02 3.226760000000000184e-01 1.124099999999999926e-02 2.469299999999999967e-02 5.636839999999999629e-01 -1.659380000000000022e-01 -1.153359999999999941e-01 3.275950000000000251e-01 1.126640000000000003e-01 9.386200000000000099e-02 -4.399799999999999822e-01 8.426500000000000656e-02 1.637000000000000000e-03 -3.103020000000000223e-01 -5.901499999999999801e-02 -3.068600000000000147e-02 -2.578480000000000216e-01 1.155410000000000048e-01 -4.336500000000000077e-02 -2.880360000000000142e-01 -3.326099999999999890e-02 -5.099399999999999766e-02 -2.562220000000000053e-01 4.209899999999999753e-02 -5.908999999999999669e-02 -1.870940000000000103e-01 -2.000180000000000013e-01 2.758499999999999841e-02 -2.862140000000000239e-01 -1.461480000000000001e-01 -4.921699999999999686e-02 -3.998729999999999785e-01 3.513800000000000257e-02 7.868700000000000694e-02 -4.674289999999999834e-01 1.720889999999999920e-01 -3.058200000000000154e-02 -3.145330000000000070e-01 5.064199999999999952e-02 -1.346900000000000007e-02 -4.907659999999999800e-01 7.055899999999999672e-02 1.280149999999999899e-01 -8.918700000000000239e-02 1.618970000000000131e-01 1.367900000000000019e-02
3.726450000000000040e-01 3.311000000000000054e-02 7.444299999999999529e-02 4.054240000000000066e-01 2.708329999999999904e-01 2.926000000000000215e-03 3.313969999999999971e-01 -1.826720000000000010e-01 1.645689999999999931e-01 3.678270000000000151e-01 6.848700000000000621e-02 -6.855700000000000682e-02 3.379400000000000182e-01 -1.608819999999999972e-01 -1.243000000000000008e-02 2.055740000000000067e-01 -7.809000000000000663e-02 5.443800000000000028e-02 4.006319999999999881e-01 1.727539999999999909e-01 -1.226899999999999935e-01 2.441730000000000012e-01 -1.340860000000000107e-01 -2.288000000000000103e-03 5.418889999999999540e-01 6.409999999999999899e-03 4.016000000000000125e-02 4.279490000000000238e-01 -9.096500000000000419e-02 -6.351300000000000001e-02 2.440759999999999874e-01 2.102100000000000149e-02 -5.709299999999999792e-02 1.984760000000000135e-01 -8.513400000000000134e-02 -1.493700000000000062e-02 -2.597119999999999984e-01 -2.035999999999999963e-02 -4.001099999999999796e-02 -2.962060000000000248e-01 2.029019999999999990e-01 -5.894100000000000034e-02 -6.871469999999999523e-01 1.656200000000000033e-02 -9.216699999999999893e-02 -3.127220000000000000e-01 -1.824780000000000013e-01 -4.157000000000000105e-03 -5.497170000000000112e-01 1.271950000000000025e-01 -8.613000000000000864e-03 -3.969509999999999983e-01 3.087799999999999920e-02 -4.380099999999999966e-02 -2.119540000000000035e-01 -7.842000000000000359e-02 1.674200000000000133e-01 -6.578410000000000091e-01 1.327230000000000076e-01 -7.536000000000000164e-03 -4.385689999999999866e-01 1.240379999999999955e-01 -1.037000000000000074e-02 -4.452490000000000059e-01 5.420999999999999604e-03 5.143199999999999855e-02 -3.339429999999999898e-01 -5.275000000000000175e-03 -5.356199999999999850e-02 -2.414979999999999905e-01 5.315799999999999692e-02 1.314700000000000070e-02 3.893289999999999806e-01 -1.722110000000000030e-01 -2.859599999999999989e-02 3.635869999999999935e-01 -3.988400000000000278e-02 1.116739999999999955e-01 3.953559999999999852e-01 -8.412400000000000433e-02 7.533900000000000319e-02 1.680300000000000127e-01 -1.024940000000000018e-01 -6.519400000000000195e-02 2.630469999999999753e-01 7.117500000000000215e-02 9.928399999999999725e-02 2.369600000000000040e-01 9.772000000000000131e-02 -1.446379999999999888e-01 3.018699999999999856e-02 1.718659999999999910e-01 -3.813899999999999929e-02 5.394219999999999571e-01 -2.825320000000000054e-01 5.257000000000000388e-03 4.997770000000000268e-01 1.072700000000000042e-01 -4.204200000000000298e-02 4.060869999999999758e-01 1.576200000000000170e-02 3.911900000000000099e-02 5.700349999999999584e-01 -2.355309999999999904e-01 -9.680199999999999916e-02 3.546630000000000060e-01 1.068859999999999949e-01 8.642900000000000582e-02 -4.651779999999999804e-01 1.102489999999999998e-01 3.803600000000000037e-02 -2.252520000000000078e-01 -2.545700000000000046e-02 -6.332699999999999441e-02 -3.501949999999999785e-01 1.020000000000000073e-02 -3.794199999999999656e-02 -3.431699999999999751e-01 -8.259199999999999875e-02 -8.694000000000000339e-03 -1.664980000000000071e-01 2.699299999999999963e-02 -2.464900000000000077e-02 -2.018010000000000081e-01 -1.771149999999999947e-01 1.746100000000000083e-02 -2.105349999999999999e-01 -1.649579999999999935e-01 -1.109539999999999971e-01 -3.920420000000000016e-01 1.996500000000000011e-02 1.006490000000000024e-01 -4.486979999999999857e-01 1.526019999999999877e-01 -5.754399999999999793e-02 -1.372480000000000089e-01 7.544199999999999517e-02 2.692699999999999955e-02 -4.097279999999999811e-01 -3.055799999999999836e-02 1.621630000000000016e-01 -1.127459999999999990e-01 1.842519999999999991e-01 4.832999999999999796e-02