1.217753301248271924e+02 -2.365424382601098892e-03 0.000000000000000000e+00 -2.365424382601098458e-03 1.217770354911016284e+02 0.000000000000000000e+00 0.000000000000000000e+00 0.000000000000000000e+00 1.046813490528085708e+02
1.215871562318625507e+02 1.202981733026594752e-01 1.852589364818021467e-03 1.202981733026594752e-01 1.219878674064217705e+02 1.177804365858542207e-03 1.852589364818021467e-03 1.177804365858542207e-03 1.046941993953552270e+02
6.823909168903028899e+01 1.233076174682220305e+01 1.488119321769709735e+01 1.233076174682220305e+01 6.135926801325635438e+01 1.636442262456688113e+01 1.488119321769709735e+01 1.636442262456688113e+01 4.942014461874808262e+01
6.797588340608480451e+01 1.197929582078425170e+01 1.484638642202396852e+01 1.197929582078425170e+01 6.158339438100566099e+01 1.635889894887999318e+01 1.484638642202396852e+01 1.635889894887999318e+01 4.942116137545534826e+01
1.299351346524707083e+02 1.985512153658701928e+00 9.376010917012472135e+00 1.985512153658701928e+00 9.757719869320906980e+01 -1.241956345553985308e+01 9.376010917012472135e+00 -1.241956345553985308e+01 1.343789769452380369e+02
1.294922115098593736e+02 2.199180531108048342e+00 9.354042182774424674e+00 2.199180531108048342e+00 9.796215393572002483e+01 -1.243319392353013164e+01 9.354042182774424674e+00 -1.243319392353013164e+01 1.343863128635981639e+02
8.166216306914172662e+01 -9.742477447479270580e+00 -1.204939968301969522e+01 -9.742477447479270580e+00 8.040822541687268199e+01 1.434168992724080560e+01 -1.204939968301969522e+01 1.434168992724080560e+01 6.353873703445105292e+01
8.148062984538776732e+01 -9.431380508740881297e+00 -1.202977593456304817e+01 -9.431380508740881297e+00 8.056317637239632745e+01 1.433709307126273202e+01 -1.202977593456304817e+01 1.433709307126273202e+01 6.354642857337001516e+01
1.188824657572556447e+02 2.351625066227668093e+00 -1.951098999301262404e+00 2.351625066227668093e+00 8.792732374754093883e+01 -2.549571663464917037e+00 -1.951098999301262404e+00 -2.549571663464917037e+00 9.480233904305730164e+01
1.187986067677121866e+02 2.713998653868353372e+00 -1.955664402736880136e+00 2.713998653868353372e+00 8.803323760885383820e+01 -2.553397406573800765e+00 -1.955664402736880136e+00 -2.553397406573800765e+00 9.480998553157016318e+01
8.886799321730535439e+01 -7.821321138668976936e+00 -3.897743367774400891e+00 -7.821321138668976936e+00 1.619675889339103492e+02 1.122171277441190362e+01 -3.897743367774400891e+00 1.122171277441190362e+01 9.164263574278986368e+01
8.940601341146785330e+01 -8.238539841465392755e+00 -3.912792055611783226e+00 -8.238539841465392755e+00 1.612558575421443550e+02 1.121600660802372929e+01 -3.912792055611783226e+00 1.121600660802372929e+01 9.164014407480367197e+01
1.265330033309620177e+02 -6.629249285560986138e+00 7.044579309149681556e+00 -6.629249285560986138e+00 1.744090878445652208e+02 2.590928211325998376e+00 7.044579309149681556e+00 2.590928211325998376e+00 1.296230331862206242e+02
1.266981159591183825e+02 -6.671581461893240750e+00 7.045064955532077455e+00 -6.671581461893240750e+00 1.742592921224105282e+02 2.585038558629676686e+00 7.045064955532077455e+00 2.585038558629676686e+00 1.296393999454313075e+02
1.384746000393108716e+02 2.299502104277673542e+00 -1.130489538430092367e+01 2.299502104277673542e+00 1.416630634246993736e+02 3.128500684921122765e+00 -1.130489538430092367e+01 3.128500684921122765e+00 9.531166460703430232e+01
1.381470676085066884e+02 2.097732560925224199e+00 -1.129722896479514027e+01 2.097732560925224199e+00 1.420298874731358012e+02 3.134011837189732752e+00 -1.129722896479514027e+01 3.134011837189732752e+00 9.531608716669836667e+01
6.727914604272025656e+01 -5.998834376611145380e+00 -4.018238721953095727e+00 -5.998834376611145380e+00 5.744198947552747825e+01 2.138232284871101729e+00 -4.018238721953095727e+00 2.138232284871101729e+00 4.971146507771337753e+01
6.741010375719960734e+01 -5.773846406935118303e+00 -4.018576296213071330e+00 -5.773846406935118303e+00 5.733461976246393732e+01 2.134843355776814278e+00 -4.018576296213071330e+00 2.134843355776814278e+00 4.972007058404384594e+01
8.067083469849426081e+01 5.104061697648096363e+00 1.700177718161108942e+01 5.104061697648096363e+00 6.830167184880133391e+01 -1.665731217487819293e+01 1.700177718161108942e+01 -1.665731217487819293e+01 8.394431922241965083e+01
8.053783319592817236e+01 5.321338913862811992e+00 1.698075640121169982e+01 5.321338913862811992e+00 6.846617113934432552e+01 -1.664997570167991725e+01 1.698075640121169982e+01 -1.664997570167991725e+01 8.396399956214368387e+01
1.320603585179455877e+02 4.592706056600712294e+00 1.398050089254844419e+00 4.592706056600712294e+00 8.612909834293749611e+01 9.050362194371123437e+00 1.398050089254844419e+00 9.050362194371123437e+00 6.570965882968238247e+01
1.319330605564884991e+02 4.070313633653826813e+00 1.385216124601708731e+00 4.070313633653826813e+00 8.622342140939728949e+01 9.056665400415305101e+00 1.385216124601708731e+00 9.056665400415305101e+00 6.571464223085089884e+01
1.345651758281691173e+02 -3.242278241638913538e+00 -9.969508385048776233e+00 -3.242278241638913538e+00 1.282580014596896376e+02 1.118722077685838912e+01 -9.969508385048776233e+00 1.118722077685838912e+01 1.297090146889958362e+02
1.344289324011982387e+02 -2.910304820991594266e+00 -9.950471044423307987e+00 -2.910304820991594266e+00 1.284093503667616858e+02 1.118480766074263855e+01 -9.950471044423307987e+00 1.118480766074263855e+01 1.297277651556775027e+02
7.580100592549395344e+01 2.925457120010195242e-02 -1.141468643068508015e+01 2.925457120010195242e-02 1.223565939986181803e+02 5.936180673392136065e+00 -1.141468643068508015e+01 5.936180673392136065e+00 9.334188217226805762e+01
7.593480994915728388e+01 3.266542932132179833e-02 -1.142205277990198731e+01 3.266542932132179833e-02 1.222067521652458026e+02 5.943880829915978659e+00 -1.142205277990198731e+01 5.943880829915978659e+00 9.336069585326633558e+01
1.611712526451760255e+02 1.777957893204805373e+01 -1.639074213902005539e+01 1.777957893204805373e+01 1.688286524638690480e+02 1.539292831474712031e+01 -1.639074213902005539e+01 1.539292831474712031e+01 1.585851398638807837e+02
1.614037687121945908e+02 1.730750008034492637e+01 -1.642474616128016152e+01 1.730750008034492637e+01 1.685266565990041272e+02 1.540826761721440796e+01 -1.642474616128016152e+01 1.540826761721440796e+01 1.585828786732483593e+02
1.166129626975795190e+02 -1.184156392137323976e+01 1.359376051393109996e+01 -1.184156392137323976e+01 1.602699853569233142e+02 -1.670199839867073521e+01 1.359376051393109996e+01 -1.670199839867073521e+01 1.174018125625457287e+02
1.166279785260734911e+02 -1.168416560340861743e+01 1.358734584467090478e+01 -1.168416560340861743e+01 1.602442204927315004e+02 -1.668549836340664072e+01 1.358734584467090478e+01 -1.668549836340664072e+01 1.174227072978560358e+02
5.478897875917126470e+01 -1.372601703497351167e-01 1.365306585973761422e+01 -1.372601703497351167e-01 6.948996232990340616e+01 1.249738050525087907e+01 1.365306585973761422e+01 1.249738050525087907e+01 5.144655036550421556e+01
5.491478981989909158e+01 -6.424310474999123111e-02 1.366053255576865944e+01 -6.424310474999123111e-02 6.937743740214152410e+01 1.249667943177955642e+01 1.366053255576865944e+01 1.249667943177955642e+01 5.146497858246470258e+01
1.691625839505910847e+02 -2.087519576269458810e+01 -1.522578657477828123e+01 -2.087519576269458810e+01 1.216004344088164402e+02 -1.081138218972998821e+01 -1.522578657477828123e+01 -1.081138218972998821e+01 1.149299348273672763e+02
1.694353263259683615e+02 -2.056318262282595555e+01 -1.524429495223596831e+01 -2.056318262282595555e+01 1.213573598030240248e+02 -1.081866863050453276e+01 -1.524429495223596831e+01 -1.081866863050453276e+01 1.149429320672170292e+02
1.017170161804637019e+02 -1.741926140707905546e+01 -7.959707155230484332e-01 -1.741926140707905546e+01 1.082964945460640820e+02 -7.385937031305283007e+00 -7.959707155230484332e-01 -7.385937031305283007e+00 8.526597916137072275e+01
1.016485260036424734e+02 -1.691212312159995435e+01 -8.141979804493264528e-01 -1.691212312159995435e+01 1.082531082385207952e+02 -7.388036126069081888e+00 -8.141979804493264528e-01 -7.388036126069081888e+00 8.526977859812957661e+01
7.761943092250970722e+01 6.150292530736158891e-01 1.579657105981540788e+01 6.150292530736158891e-01 1.025384603848835781e+02 1.211165258770716058e+01 1.579657105981540788e+01 1.211165258770716058e+01 1.088389513716268482e+02
7.788023311657858017e+01 3.908833515293263505e-01 1.580141657603015304e+01 3.908833515293263505e-01 1.022584668350351222e+02 1.209034084808426002e+01 1.580141657603015304e+01 1.209034084808426002e+01 1.088385774814580174e+02
8.684068074361965728e+01 1.536023677907029850e+01 -7.359878759691020456e+00 1.536023677907029850e+01 1.005561052469082313e+02 -1.720756469616590323e+01 -7.359878759691020456e+00 -1.720756469616590323e+01 7.002693794902639013e+01
8.687267259241551187e+01 1.522320604622611917e+01 -7.350073737199175561e+00 1.522320604622611917e+01 1.005373260928349595e+02 -1.720406526911071765e+01 -7.350073737199175561e+00 -1.720406526911071765e+01 7.003961285852781771e+01
9.437951914639201334e+01 -1.896829469322627526e+00 -8.181085791308973398e+00 -1.896829469322627526e+00 9.760291452647108201e+01 1.069606668363574897e+01 -8.181085791308973398e+00 1.069606668363574897e+01 1.302560660674116662e+02
9.427078890446468051e+01 -1.648658047530582538e+00 -8.165818237693622805e+00 -1.648658047530582538e+00 9.773622392000139314e+01 1.069410035150751170e+01 -8.165818237693622805e+00 1.069410035150751170e+01 1.302593697035062235e+02
8.847889187440203784e+01 1.241046578760457209e+01 -4.484554796478672500e+00 1.241046578760457209e+01 1.389131148040983135e+02 1.184871107688169545e+01 -4.484554796478672500e+00 1.184871107688169545e+01 1.268392328389030297e+02
8.857047005061620837e+01 1.217738351616459269e+01 -4.495565131040077489e+00 1.217738351616459269e+01 1.387830763396162865e+02 1.184252786098527288e+01 -4.495565131040077489e+00 1.184252786098527288e+01 1.268415166633018174e+02
8.847088989871903664e+01 -1.458664388012306290e+01 4.336105529609835862e+00 -1.458664388012306290e+01 1.240752943153204342e+02 -9.207213052956610966e+00 4.336105529609835862e+00 -9.207213052956610966e+00 1.043087099403458495e+02
8.905415992905983558e+01 -1.439977134361667943e+01 4.331741461256365611e+00 -1.439977134361667943e+01 1.233267261922514137e+02 -9.194925604951706077e+00 4.331741461256365611e+00 -9.194925604951706077e+00 1.042932680433888066e+02
8.496003270720542844e+01 5.728113505453400478e+00 1.455418755936492303e+01 5.728113505453400478e+00 1.255329635684378644e+02 1.422833381080401693e+01 1.455418755936492303e+01 1.422833381080401693e+01 7.621259649578911421e+01
8.501856567203915915e+01 5.923759316700253130e+00 1.456391743309906772e+01 5.923759316700253130e+00 1.255143303940296136e+02 1.422705615061670592e+01 1.456391743309906772e+01 1.422705615061670592e+01 7.624221200372066676e+01
1.456909952247020783e+02 8.176894440545767750e-01 1.205123024633728690e+01 8.176894440545767750e-01 1.775178446576879594e+02 1.546245092185632686e+01 1.205123024633728690e+01 1.546245092185632686e+01 1.061460820069703317e+02
1.457170413885341702e+02 1.162239569095794511e+00 1.206126399330342736e+01 1.162239569095794511e+00 1.775364497431555435e+02 1.547080958984574650e+01 1.206126399330342736e+01 1.547080958984574650e+01 1.061678341381045954e+02
1.363822436792817427e+02 1.763891020759987427e+01 6.307617260829505135e+00 1.763891020759987427e+01 1.158454487979775251e+02 3.176235871853249293e+00 6.307617260829505135e+00 3.176235871853249293e+00 1.533740466228377670e+02
1.365686662242884211e+02 1.794810426196633202e+01 6.315245786458969945e+00 1.794810426196633202e+01 1.157716687888540577e+02 3.178894697395070246e+00 6.315245786458969945e+00 3.178894697395070246e+00 1.534001501465236004e+02
1.632574845329144466e+02 1.682007277282761848e+01 -9.145714383383463542e+00 1.682007277282761848e+01 1.091352333662655525e+02 1.796925627287399152e+01 -9.145714383383463542e+00 1.796925627287399152e+01 1.096552616883916471e+02
1.635007738857511583e+02 1.658656615262681910e+01 -9.160634810137514350e+00 1.658656615262681910e+01 1.089357563856134306e+02 1.795737672034291421e+01 -9.160634810137514350e+00 1.795737672034291421e+01 1.096651803260207600e+02
7.374228090096814014e+01 -2.567638287475783709e+00 2.628385232893353657e-02 -2.567638287475783709e+00 1.040919434416615417e+02 -4.225614298001017843e+00 2.628385232893353657e-02 -4.225614298001017843e+00 7.319352634612862119e+01
7.342105168669981197e+01 -2.735077863452351821e+00 2.986801401015174925e-02 -2.735077863452351821e+00 1.045073232734263087e+02 -4.233410615504180186e+00 2.986801401015174925e-02 -4.233410615504180186e+00 7.324077397034230330e+01
1.550264444310058138e+02 1.157724636073307956e+01 -3.299007771403646316e+00 1.157724636073307956e+01 1.383361357109455412e+02 -1.500464649486451973e+00 -3.299007771403646316e+00 -1.500464649486451973e+00 1.235533378625097782e+02
1.547394189245605105e+02 1.204742436911202041e+01 -3.297651564583968575e+00 1.204742436911202041e+01 1.386852597031976870e+02 -1.508666471681645582e+00 -3.297651564583968575e+00 -1.508666471681645582e+00 1.235712436195681647e+02
1.066065171721923406e+02 1.105242437619586759e+01 6.663791603015778442e+00 1.105242437619586759e+01 9.462926353452166950e+01 -1.535495991031373819e+01 6.663791603015778442e+00 -1.535495991031373819e+01 1.309823061155247785e+02
1.068898148097530623e+02 1.114983792906588356e+01 6.657698013500787049e+00 1.114983792906588356e+01 9.444403568254796255e+01 -1.534575044891314732e+01 6.657698013500787049e+00 -1.534575044891314732e+01 1.309775570629675485e+02
4.406694997695348093e+01 -1.702380093245773815e-03 0.000000000000000000e+00 -1.702380093245773815e-03 4.406808130780210320e+01 0.000000000000000000e+00 0.000000000000000000e+00 0.000000000000000000e+00 3.776813427566824544e+01
4.366609065897839770e+01 1.558219356911693942e-01 1.804737433315618084e-04 1.558219356911693942e-01 4.449513088685438333e+01 -4.336760843870475068e-04 1.804737433315618084e-04 -4.336760843870475068e-04 3.777476062990561445e+01
-6.551159456142015891e+00 9.755281878462881195e+00 9.086377785973802190e+00 9.755281878462881195e+00 -1.170095064841614274e+01 -1.722186806403794179e+01 9.086377785973802190e+00 -1.722186806403794179e+01 -4.232432871232759020e+00
-6.638735560830569149e+00 9.640848831382154316e+00 9.095772213526121419e+00 9.640848831382154316e+00 -1.160966774124085354e+01 -1.723152602207955297e+01 9.095772213526121419e+00 -1.723152602207955297e+01 -4.222951565497156778e+00
7.449506079009239556e+01 -1.598620946993289138e+01 -8.251389213680173640e+00 -1.598620946993289138e+01 8.027502745006482598e+01 1.739388351945253319e+01 -8.251389213680173640e+00 1.739388351945253319e+01 5.726475674772911617e+01
7.426766487177683018e+01 -1.562470680099714215e+01 -8.231671453089587587e+00 -1.562470680099714215e+01 8.044872299563098750e+01 1.739094793717751841e+01 -8.231671453089587587e+00 1.739094793717751841e+01 5.728164803618233236e+01
2.224090856252869131e+01 5.366694977843486924e+00 -7.730176943096429554e+00 5.366694977843486924e+00 1.847270149422534757e+01 2.660575912017177913e+00 -7.730176943096429554e+00 2.660575912017177913e+00 2.925529451873826048e+01
2.238716152880027366e+01 5.188364582824605442e+00 -7.738612701935166704e+00 5.188364582824605442e+00 1.834496631683879997e+01 2.666696947245285276e+00 -7.738612701935166704e+00 2.666696947245285276e+00 2.927271295201824231e+01
3.686073734311430883e+01 8.090812960241724028e+00 -9.549074664718434136e+00 8.090812960241724028e+00 4.697382165115943309e+01 -2.078198372514669767e+00 -9.549074664718434136e+00 -2.078198372514669767e+00 4.613904310168354073e+01
3.720497763751073705e+01 7.980173313930710499e+00 -9.564937133679585202e+00 7.980173313930710499e+00 4.661173876591426080e+01 -2.068375678320569566e+00 -9.564937133679585202e+00 -2.068375678320569566e+00 4.615326666379064591e+01
1.614158446624507093e+01 6.840202163921793144e+00 1.268011635684393390e+01 6.840202163921793144e+00 4.213639370063792455e+01 -1.704935372711916131e+01 1.268011635684393390e+01 -1.704935372711916131e+01 2.605064029587131813e+01
1.619983902278844567e+01 6.628695891107946103e+00 1.269604218155623165e+01 6.628695891107946103e+00 4.206975033407960751e+01 -1.705262352204801601e+01 1.269604218155623165e+01 -1.705262352204801601e+01 2.606032053749682120e+01
5.906786966997555055e+01 8.712321027170291998e+00 -1.044534262313449346e+01 8.712321027170291998e+00 2.267038925457974941e+01 2.458889876015224463e+00 -1.044534262313449346e+01 2.458889876015224463e+00 4.407227533329882618e+01
5.933133937635527388e+01 8.687017548918394283e+00 -1.045190687441188970e+01 8.687017548918394283e+00 2.250214563577075211e+01 2.463660203882385602e+00 -1.045190687441188970e+01 2.463660203882385602e+00 4.409086910702384898e+01
4.623190546419388625e+01 1.140588526888941878e+01 8.455686313573222535e+00 1.140588526888941878e+01 3.065787007063636693e+01 -1.043002414937013533e+01 8.455686313573222535e+00 -1.043002414937013533e+01 5.278075416394137420e+01
4.640226930800913863e+01 1.156217145447068084e+01 8.457400349060490541e+00 1.156217145447068084e+01 3.059141761330474196e+01 -1.042126322503787428e+01 8.457400349060490541e+00 -1.042126322503787428e+01 5.279783272756608170e+01
4.317414716488114124e+01 -4.064606847221594599e+00 4.314012414880910917e+00 -4.064606847221594599e+00 1.365957830884270585e+01 -7.555732818767618042e+00 4.314012414880910917e+00 -7.555732818767618042e+00 3.678867111087836150e+01
4.327550301679212197e+01 -4.356375182382690170e+00 4.322680072657834494e+00 -4.356375182382690170e+00 1.363246045393154837e+01 -7.560826297360362602e+00 4.322680072657834494e+00 -7.560826297360362602e+00 3.679300493976682418e+01
7.598034748753455858e+00 -1.363911309813637729e+01 9.520030624073662295e+00 -1.363911309813637729e+01 9.711918681369876793e+00 7.255945413916448317e+00 9.520030624073662295e+00 7.255945413916448317e+00 2.388811046634305768e+01
7.643481182973376420e+00 -1.353735309134497378e+01 9.518218033582952486e+00 -1.353735309134497378e+01 9.668637830533757693e+00 7.257970920755370869e+00 9.518218033582952486e+00 7.257970920755370869e+00 2.389137424983869096e+01
3.095292974174193290e+01 -1.356815553983448730e+01 -3.376560011463428879e+00 -1.356815553983448730e+01 6.904955409725043580e+01 1.489110942027770434e+01 -3.376560011463428879e+00 1.489110942027770434e+01 2.015891744754226167e+01
3.112861811264942702e+01 -1.353870623795205042e+01 -3.376141828661225919e+00 -1.353870623795205042e+01 6.883321509940147109e+01 1.488117079004352128e+01 -3.376141828661225919e+00 1.488117079004352128e+01 2.016107624837182044e+01
4.513504839020114190e+01 -4.689751719931889440e+00 1.653460153212924411e+01 -4.689751719931889440e+00 7.026799514494301491e+01 -9.384007609637294856e-01 1.653460153212924411e+01 -9.384007609637294856e-01 3.490028432432119843e+01
4.564022068408775112e+01 -4.513431906733746501e+00 1.656033888183153024e+01 -4.513431906733746501e+00 6.967945830907385130e+01 -9.279898774480754842e-01 1.656033888183153024e+01 -9.279898774480754842e-01 3.490518654943057442e+01
6.320665698120043174e+01 -6.987165141523838940e+00 2.191850857208760051e+00 -6.987165141523838940e+00 3.713215024155091726e+01 2.844046939984380185e+00 2.191850857208760051e+00 2.844046939984380185e+00 6.889235434290107207e+01
6.361962353113272428e+01 -6.707012683848920354e+00 2.199692328326119828e+00 -6.707012683848920354e+00 3.682264307442891749e+01 2.830509778974303003e+00 2.199692328326119828e+00 2.830509778974303003e+00 6.890958657613072091e+01
8.911766492102611892e+01 1.064760663329323620e+01 5.402555756289667777e+00 1.064760663329323620e+01 7.869038180142720762e+01 1.864277542911049323e+01 5.402555756289667777e+00 1.864277542911049323e+01 5.009078400970904710e+01
8.933560219386478707e+01 1.073097705918416800e+01 5.413469108102910710e+00 1.073097705918416800e+01 7.851262373533567995e+01 1.863286175382546972e+01 5.413469108102910710e+00 1.863286175382546972e+01 5.010322154365751857e+01
9.931566209532147127e+01 1.842678454928066856e+01 -7.192401500283096105e+00 1.842678454928066856e+01 9.633289737937948871e+01 -3.181828703545828141e+00 -7.192401500283096105e+00 -3.181828703545828141e+00 7.531799720775237006e+01
9.930857257547376093e+01 1.797557132377654199e+01 -7.184746947223791480e+00 1.797557132377654199e+01 9.623832652920224007e+01 -3.170472296127157197e+00 -7.184746947223791480e+00 -3.170472296127157197e+00 7.533673705364002160e+01
5.647749619786851127e+01 1.490371610185507301e+01 -4.402729386055591831e+00 1.490371610185507301e+01 5.457925585969084636e+01 -1.587182772495103400e+01 -4.402729386055591831e+00 -1.587182772495103400e+01 2.139584043691704807e+01
5.640603948444158533e+01 1.456928603915834763e+01 -4.385887117860066020e+00 1.456928603915834763e+01 5.459134317247666957e+01 -1.586997167133372244e+01 -4.385887117860066020e+00 -1.586997167133372244e+01 2.140231095862514721e+01
6.199237127559301541e+01 8.140973290288023634e+00 1.871259027894866733e+01 8.140973290288023634e+00 8.013745430964522143e+01 -3.514257217471796757e+00 1.871259027894866733e+01 -3.514257217471796757e+00 6.562273467356887124e+01
6.191624276185847009e+01 8.200682590740571598e+00 1.870079806232097752e+01 8.200682590740571598e+00 8.027529256595687457e+01 -3.511069499956447348e+00 1.870079806232097752e+01 -3.511069499956447348e+00 6.564645679959384950e+01
4.935164857207643507e+01 -2.831026503141342854e-01 -1.261238714009815887e+01 -2.831026503141342854e-01 6.370521309746075644e+01 1.716732233962455112e+01 -1.261238714009815887e+01 1.716732233962455112e+01 3.345855045451215659e+01
4.980763617137984056e+01 1.460826162775866362e-02 -1.261589601349390755e+01 1.460826162775866362e-02 6.321796681593848177e+01 1.712619812930748964e+01 -1.261589601349390755e+01 1.712619812930748964e+01 3.346334939425172195e+01
8.447999427030075026e+01 9.449248473970920159e+00 1.116814510568799790e+01 9.449248473970920159e+00 6.905440524073645747e+01 -6.183195750229725007e+00 1.116814510568799790e+01 -6.183195750229725007e+00 4.581313434465712930e+01
8.471432481184632479e+01 8.916226220691864768e+00 1.118462455819048706e+01 8.916226220691864768e+00 6.880779686610719637e+01 -6.193827992644412639e+00 1.118462455819048706e+01 -6.193827992644412639e+00 4.582005681351275683e+01
4.782206199599496443e+01 -1.455990888609571421e+01 -4.002147345710595161e+00 -1.455990888609571421e+01 4.863403225252805839e+01 3.544295501230929624e+00 -4.002147345710595161e+00 3.544295501230929624e+00 2.623500240677667250e+01
4.798977623773800616e+01 -1.497409858998189947e+01 -4.007444809540191777e+00 -1.497409858998189947e+01 4.858423122254266957e+01 3.547563803736625943e+00 -4.007444809540191777e+00 3.547563803736625943e+00 2.625532378104842834e+01
2.920700751192182665e+01 -1.440433838548825385e+01 1.173591555925244378e+01 -1.440433838548825385e+01 7.284694649078016937e+01 -1.706684938080614344e+01 1.173591555925244378e+01 -1.706684938080614344e+01 3.717673791670910788e+01
2.936816729665905967e+01 -1.449199342184920702e+01 1.174224065479196000e+01 -1.449199342184920702e+01 7.269275316680686672e+01 -1.706650588813365133e+01 1.174224065479196000e+01 -1.706650588813365133e+01 3.718907681755369055e+01
5.518366131443742972e+01 3.842094091081778462e+00 1.910873903246348426e+00 3.842094091081778462e+00 5.330455524623239683e+01 3.283081438015111431e+00 1.910873903246348426e+00 3.283081438015111431e+00 6.271705708316268613e+01
5.516032254144500513e+01 3.650403457279888020e+00 1.911069008217139098e+00 3.650403457279888020e+00 5.336386452079912601e+01 3.280829821190040185e+00 1.911069008217139098e+00 3.280829821190040185e+00 6.271390112843246811e+01
6.377525778806533374e+00 -5.055244919015711602e+00 1.262589702745744979e+01 -5.055244919015711602e+00 3.868704579736302218e+00 1.362217979380502975e+01 1.262589702745744979e+01 1.362217979380502975e+01 2.423650070377751575e+01
6.576369864761957729e+00 -5.145004325119033162e+00 1.262892871841047970e+01 -5.145004325119033162e+00 3.715673024818085146e+00 1.360322821319503461e+01 1.262892871841047970e+01 1.360322821319503461e+01 2.424545810021704995e+01
2.732112645806344275e+01 6.201365899035022444e+00 -1.642402073124851469e+01 6.201365899035022444e+00 6.105593052904062290e+01 7.287318387035434775e+00 -1.642402073124851469e+01 7.287318387035434775e+00 2.763519612594388875e+01
2.742526576191360732e+01 6.317053935977020807e+00 -1.642579182629524226e+01 6.317053935977020807e+00 6.096264019944300827e+01 7.276976602329197519e+00 -1.642579182629524226e+01 7.276976602329197519e+00 2.764528024751162860e+01
4.363774662197383414e+00 -5.983453981602871785e+00 1.171549358439484578e+01 -5.983453981602871785e+00 1.859366666878655039e+01 1.496561758648118534e+01 1.171549358439484578e+01 1.496561758648118534e+01 3.617555328721049346e+00
4.396381971461136295e+00 -5.989548224045744718e+00 1.171785036431820437e+01 -5.989548224045744718e+00 1.858094062305394090e+01 1.496369934303816507e+01 1.171785036431820437e+01 1.496369934303816507e+01 3.633877373592423687e+00
5.784910193918463506e+00 -4.907332537668645855e+00 -1.289364479904505423e+01 -4.907332537668645855e+00 4.724859240270212268e+01 -6.459056735787349623e+00 -1.289364479904505423e+01 -6.459056735787349623e+00 1.158547021827316748e+01
5.961303717076717135e+00 -5.130642189555196353e+00 -1.289906343814973155e+01 -5.130642189555196353e+00 4.706671073506329606e+01 -6.454461040333252519e+00 -1.289906343814973155e+01 -6.454461040333252519e+00 1.159768092271018602e+01
9.950384425091255025e+01 1.122543690514498316e+01 -1.634990805882883436e+01 1.122543690514498316e+01 7.911246227881116511e+01 1.090646447247931050e+01 -1.634990805882883436e+01 1.090646447247931050e+01 8.469385552899996128e+01
9.899696374811067301e+01 1.125203401451718754e+01 -1.632327034318277370e+01 1.125203401451718754e+01 7.957507432943945958e+01 1.092318410573733267e+01 -1.632327034318277370e+01 1.092318410573733267e+01 8.470741548657399278e+01
2.236157328242256526e+01 -4.623239849312535732e+00 -6.588007566950262905e+00 -4.623239849312535732e+00 5.421719147806300931e+00 -8.972641218226446114e+00 -6.588007566950262905e+00 -8.972641218226446114e+00 3.874842718713770751e+01
2.225601816829473734e+01 -4.550103001343805076e+00 -6.588195707438341486e+00 -4.550103001343805076e+00 5.530298343602810363e+00 -8.979663285266797246e+00 -6.588195707438341486e+00 -8.979663285266797246e+00 3.876220847788947310e+01
1.529115842673810022e+01 1.514198733790309337e+00 4.801362044479294156e+00 1.514198733790309337e+00 7.973101461225981268e+01 -6.559500719666369939e+00 4.801362044479294156e+00 -6.559500719666369939e+00 2.802375269829610005e+01
1.546589188170418261e+01 1.646403123496069432e+00 4.799635333034971474e+00 1.646403123496069432e+00 7.950118607128733572e+01 -6.544761424171415598e+00 4.799635333034971474e+00 -6.544761424171415598e+00 2.802829952466986541e+01
8.132419255300125371e+01 9.199022030441853515e-01 1.082877182769214208e+01 9.199022030441853515e-01 6.498613712971743439e+01 -1.633469966110585503e+01 1.082877182769214208e+01 -1.633469966110585503e+01 6.280807864917167649e+01
8.091455061208763766e+01 1.204193959382793944e+00 1.079929202837330671e+01 1.204193959382793944e+00 6.538838444607944211e+01 -1.634593315291677484e+01 1.079929202837330671e+01 -1.634593315291677484e+01 6.281886280131016065e+01
1.198239210432321539e-01 -1.493935206408581904e-03 0.000000000000000000e+00 -1.493935206408581904e-03 1.204535508110738673e-01 0.000000000000000000e+00 0.000000000000000000e+00 0.000000000000000000e+00 1.826493431528635747e-01
2.083523444070693176e-01 -2.109626133765533651e-01 1.144778179058801175e-04 -2.109626133765533373e-01 5.656361373998197023e-02 3.148136237704450823e-05 1.144778179058801175e-04 3.148136237704450823e-05 1.898299636788826072e-01
1.671777590965591287e+01 -2.494571193944382870e+00 4.134180436740082065e+00 -2.494571193944382870e+00 1.125644519385286202e+01 1.807552645374876921e+00 4.134180436740082065e+00 1.807552645374876921e+00 -2.077568636753229780e-01
1.653152499489346283e+01 -2.386897095155922965e+00 4.127619395731915830e+00 -2.386897095155922965e+00 1.146426149750280743e+01 1.811580411274195335e+00 4.127619395731915830e+00 1.811580411274195335e+00 -1.929223442949092593e-01
-1.701074844377646400e+01 -5.206838762821914379e+00 1.486231105125329677e+01 -5.206838762821914379e+00 -2.778773215024317267e+01 -9.793476388531427546e+00 1.486231105125329677e+01 -9.793476388531427546e+00 -2.297685346512571769e+01
-1.699956165321832557e+01 -5.073601828517632306e+00 1.485564474646533206e+01 -5.073601828517632306e+00 -2.778950943524683126e+01 -9.781561446090520917e+00 1.485564474646533206e+01 -9.781561446090520917e+00 -2.296682874553150810e+01
-3.124496054748475160e+01 -1.508855097356096298e-01 -1.279125087544455397e+01 -1.508855097356096298e-01 -3.652664228074318942e+01 -1.712562117316512555e+01 -1.279125087544455397e+01 -1.712562117316512555e+01 -2.498614344696368761e+01
-3.112982825830076550e+01 -3.637863868815427448e-01 -1.277683527318259671e+01 -3.637863868815427448e-01 -3.659155761488568004e+01 -1.710147082780640559e+01 -1.277683527318259671e+01 -1.710147082780640559e+01 -2.497736834016107110e+01
6.536919785519658355e+00 -2.304346181444397512e+00 7.437022992496888030e+00 -2.304346181444397512e+00 -6.401753877898463507e+00 7.763124551903155535e+00 7.437022992496888030e+00 7.763124551903155535e+00 -1.825389711960203343e+01
6.666705217979415288e+00 -2.469789252372740496e+00 7.436610227789744343e+00 -2.469789252372740496e+00 -6.469432755901566523e+00 7.750901484343002856e+00 7.436610227789744343e+00 7.750901484343002856e+00 -1.824632201518782182e+01
4.218652834322318057e+01 2.389499684486863007e+00 3.429720757744599169e+00 2.389499684486863007e+00 5.577912169791482633e+00 -1.358925026135172942e+01 3.429720757744599169e+00 -1.358925026135172942e+01 9.202227191202856815e+00