8.507446628000000288e+00 0.000000000000000000e+00 0.000000000000000000e+00 4.245343953999999975e+00 7.652532345000000014e+00 0.000000000000000000e+00 4.263277438000000252e+00 2.453412455000000048e+00 6.925032349000000309e+00
8.483646988000000277e+00 0.000000000000000000e+00 0.000000000000000000e+00 4.175768771000000434e+00 7.347254434999999972e+00 0.000000000000000000e+00 4.339695242000000341e+00 2.448539580999999909e+00 6.938571915999999895e+00
8.523612048000000385e+00 0.000000000000000000e+00 0.000000000000000000e+00 4.409363933999999929e+00 7.451297231999999937e+00 0.000000000000000000e+00 4.144962600000000386e+00 2.577033130999999866e+00 7.001863683999999921e+00
8.556190513000000664e+00 0.000000000000000000e+00 0.000000000000000000e+00 4.224739458000000170e+00 7.539989289000000205e+00 0.000000000000000000e+00 4.224715665999999814e+00 2.467304994000000029e+00 7.132959394000000231e+00
8.444586918000000608e+00 0.000000000000000000e+00 0.000000000000000000e+00 4.332787011999999827e+00 7.391946730999999993e+00 0.000000000000000000e+00 4.344461456000000332e+00 2.512853515999999843e+00 7.013194264000000011e+00
8.512721037000000379e+00 0.000000000000000000e+00 0.000000000000000000e+00 4.264505141999999971e+00 7.388098652000000044e+00 0.000000000000000000e+00 4.224444434999999665e+00 2.369816656999999882e+00 6.960478113999999827e+00
8.546007099000000551e+00 0.000000000000000000e+00 0.000000000000000000e+00 4.396032359000000334e+00 7.378589717999999742e+00 0.000000000000000000e+00 4.190567201000000352e+00 2.276886649000000151e+00 6.888057381000000312e+00
8.301829750999999646e+00 0.000000000000000000e+00 0.000000000000000000e+00 3.955739030000000156e+00 7.453069430000000217e+00 0.000000000000000000e+00 4.247786660000000047e+00 2.679858943000000160e+00 6.743754305000000393e+00
8.588655999000000207e+00 0.000000000000000000e+00 0.000000000000000000e+00 4.268590984000000255e+00 7.370103239999999722e+00 0.000000000000000000e+00 4.302550531999999706e+00 2.511100469000000057e+00 7.016871131000000261e+00
8.666093068000000343e+00 0.000000000000000000e+00 0.000000000000000000e+00 4.422233240999999815e+00 7.443205745000000206e+00 0.000000000000000000e+00 4.337655546999999778e+00 2.551871875999999872e+00 7.030321428999999789e+00
8.378987392999999173e+00 0.000000000000000000e+00 0.000000000000000000e+00 4.259370611999999667e+00 7.512242063000000414e+00 0.000000000000000000e+00 4.239840647000000295e+00 2.450274203999999845e+00 6.832001307999999717e+00
8.683111010999999380e+00 0.000000000000000000e+00 0.000000000000000000e+00 4.385787942000000328e+00 7.407807481999999943e+00 0.000000000000000000e+00 4.205567491000000047e+00 2.350073124000000124e+00 7.044498804999999919e+00
8.686961648000000480e+00 0.000000000000000000e+00 0.000000000000000000e+00 4.330712804000000027e+00 7.384550780999999731e+00 0.000000000000000000e+00 4.282829515999999614e+00 2.441927978999999915e+00 6.962295754000000336e+00
8.642825278000000111e+00 0.000000000000000000e+00 0.000000000000000000e+00 4.316265038000000054e+00 7.377803596999999769e+00 0.000000000000000000e+00 4.328072809000000021e+00 2.374509839999999983e+00 7.025768617999999854e+00
8.536424909999999144e+00 0.000000000000000000e+00 0.000000000000000000e+00 4.277709316000000150e+00 7.387165257999999568e+00 0.000000000000000000e+00 4.238772114999999729e+00 2.373900244000000104e+00 6.990995277999999757e+00
8.398137860000000288e+00 0.000000000000000000e+00 0.000000000000000000e+00 4.272198529999999828e+00 7.390997430999999729e+00 0.000000000000000000e+00 4.262108426000000172e+00 2.389580996999999929e+00 6.984421725999999886e+00
8.489920585000000131e+00 0.000000000000000000e+00 0.000000000000000000e+00 4.347834319000000391e+00 7.341325774999999609e+00 0.000000000000000000e+00 4.126742411000000388e+00 2.453903427000000192e+00 6.930601528000000400e+00
8.606505745999999846e+00 0.000000000000000000e+00 0.000000000000000000e+00 4.409302659999999818e+00 7.433554962999999738e+00 0.000000000000000000e+00 4.337683243999999938e+00 2.248373754999999807e+00 7.044819118999999574e+00
8.552213302000000184e+00 0.000000000000000000e+00 0.000000000000000000e+00 4.308600098000000322e+00 7.431700099000000392e+00 0.000000000000000000e+00 4.228599802999999824e+00 2.486066436000000213e+00 6.979694832999999932e+00
8.604125569000000695e+00 0.000000000000000000e+00 0.000000000000000000e+00 4.288256061000000230e+00 7.370141311000000250e+00 0.000000000000000000e+00 4.215981558000000184e+00 2.524703489999999828e+00 6.896038327000000301e+00
8.467618444999999383e+00 0.000000000000000000e+00 0.000000000000000000e+00 4.221466804000000295e+00 7.545255530999999571e+00 0.000000000000000000e+00 4.219753869999999907e+00 2.463563093999999953e+00 6.909759176999999752e+00
8.629924921000000637e+00 0.000000000000000000e+00 0.000000000000000000e+00 4.383322842000000108e+00 7.281836002000000363e+00 0.000000000000000000e+00 4.250784019000000136e+00 2.469641284000000159e+00 7.013763765000000205e+00
8.442298992999999641e+00 0.000000000000000000e+00 0.000000000000000000e+00 4.278440890999999802e+00 7.527212621000000325e+00 0.000000000000000000e+00 4.252372526000000263e+00 2.408530475000000060e+00 6.954794183999999824e+00
8.485074701000000275e+00 0.000000000000000000e+00 0.000000000000000000e+00 4.177933392999999995e+00 7.430777534999999823e+00 0.000000000000000000e+00 4.282655565999999858e+00 2.432429251999999931e+00 6.967216512000000250e+00
8.602974882999999906e+00 0.000000000000000000e+00 0.000000000000000000e+00 4.290969126000000244e+00 7.494635299999999667e+00 0.000000000000000000e+00 4.304188571000000074e+00 2.486351169999999833e+00 7.020982816000000071e+00
8.443044642000000266e+00 0.000000000000000000e+00 0.000000000000000000e+00 4.155952689000000255e+00 7.324586516000000103e+00 0.000000000000000000e+00 4.291111180999999775e+00 2.409310726999999819e+00 6.903571319000000095e+00
8.384277164000000226e+00 0.000000000000000000e+00 0.000000000000000000e+00 4.189043608999999613e+00 7.293684863000000185e+00 0.000000000000000000e+00 4.187093309999999846e+00 2.407146618000000071e+00 6.827504615999999693e+00
8.548662973000000775e+00 0.000000000000000000e+00 0.000000000000000000e+00 4.285802331000000187e+00 7.426658358000000071e+00 0.000000000000000000e+00 4.238162494000000002e+00 2.390999464000000074e+00 6.970435850000000322e+00
8.529344931000000685e+00 0.000000000000000000e+00 0.000000000000000000e+00 4.358158974000000185e+00 7.438524221999999853e+00 0.000000000000000000e+00 4.353072290000000066e+00 2.528080697000000043e+00 7.050750197000000163e+00
8.433883255999999662e+00 0.000000000000000000e+00 0.000000000000000000e+00 4.328915251999999825e+00 7.551863383999999790e+00 0.000000000000000000e+00 4.224075317999999690e+00 2.626569472999999988e+00 6.979147280000000286e+00
8.471027893000000475e+00 0.000000000000000000e+00 0.000000000000000000e+00 4.138801263000000397e+00 7.294250216000000009e+00 0.000000000000000000e+00 4.326398615999999642e+00 2.560598931999999994e+00 6.964494442000000340e+00
8.543879538000000551e+00 0.000000000000000000e+00 0.000000000000000000e+00 4.322494386999999882e+00 7.369918035000000422e+00 0.000000000000000000e+00 4.333513937000000205e+00 2.487990495000000024e+00 6.898024280999999647e+00
8.293989933000000647e+00 0.000000000000000000e+00 0.000000000000000000e+00 4.179151713000000434e+00 7.413774981000000430e+00 0.000000000000000000e+00 4.159293821000000335e+00 2.461362986000000141e+00 6.774096128000000050e+00
8.574659947000000670e+00 0.000000000000000000e+00 0.000000000000000000e+00 4.314961937999999719e+00 7.473769942999999749e+00 0.000000000000000000e+00 4.243587654999999792e+00 2.470719444999999848e+00 6.920817886000000030e+00
8.616164329000000066e+00 0.000000000000000000e+00 0.000000000000000000e+00 4.324153689000000078e+00 7.362413356000000242e+00 0.000000000000000000e+00 4.292203684000000408e+00 2.512400078000000203e+00 7.040178157999999797e+00
8.575778269000000620e+00 0.000000000000000000e+00 0.000000000000000000e+00 4.330412974999999776e+00 7.409230814999999915e+00 0.000000000000000000e+00 4.277065494000000356e+00 2.394927076000000099e+00 6.996128931000000328e+00
8.435281739000000556e+00 0.000000000000000000e+00 0.000000000000000000e+00 4.133561216999999566e+00 7.370937495999999811e+00 0.000000000000000000e+00 4.047960295000000208e+00 2.390582635999999983e+00 6.946048260999999613e+00
8.482435849999999888e+00 0.000000000000000000e+00 0.000000000000000000e+00 4.209109926000000002e+00 7.494028956000000186e+00 0.000000000000000000e+00 4.411612853000000278e+00 2.449157319999999860e+00 7.019929119999999578e+00
8.551586286999999231e+00 0.000000000000000000e+00 0.000000000000000000e+00 4.256838998000000096e+00 7.547909830000000042e+00 0.000000000000000000e+00 4.309554044999999611e+00 2.411203578999999930e+00 6.995267713999999692e+00
8.503942283000000657e+00 0.000000000000000000e+00 0.000000000000000000e+00 4.299534504000000368e+00 7.389555666999999772e+00 0.000000000000000000e+00 4.183235392000000274e+00 2.607305032000000189e+00 6.977670902999999925e+00
8.565772323999999216e+00 0.000000000000000000e+00 0.000000000000000000e+00 4.305443627999999912e+00 7.551494360000000405e+00 0.000000000000000000e+00 4.170776973999999804e+00 2.421761485000000214e+00 7.019720003999999847e+00
8.630638897000000753e+00 0.000000000000000000e+00 0.000000000000000000e+00 4.229807600000000001e+00 7.380026084999999902e+00 0.000000000000000000e+00 4.318038628000000045e+00 2.469415714999999789e+00 6.990553212000000016e+00
8.701863556999999361e+00 0.000000000000000000e+00 0.000000000000000000e+00 4.447412736999999616e+00 7.456510781000000421e+00 0.000000000000000000e+00 4.375772566000000197e+00 2.452524119000000002e+00 7.092247078999999843e+00
8.590209765000000885e+00 0.000000000000000000e+00 0.000000000000000000e+00 4.275188283000000311e+00 7.467380722999999776e+00 0.000000000000000000e+00 4.295016690999999831e+00 2.434465778999999941e+00 7.017031052000000102e+00
8.448823365000000862e+00 0.000000000000000000e+00 0.000000000000000000e+00 4.128535978999999578e+00 7.378720946999999697e+00 0.000000000000000000e+00 4.093933919000000365e+00 2.394616135999999784e+00 6.956274803000000340e+00
8.552630273000000116e+00 0.000000000000000000e+00 0.000000000000000000e+00 4.269846131000000433e+00 7.428862093000000222e+00 0.000000000000000000e+00 4.295968894999999677e+00 2.505196178999999912e+00 7.021441249000000440e+00
8.616166614999999140e+00 0.000000000000000000e+00 0.000000000000000000e+00 4.180353274999999869e+00 7.367309896000000080e+00 0.000000000000000000e+00 4.195462567999999948e+00 2.521820926999999823e+00 6.918879708000000406e+00
8.458952222000000631e+00 0.000000000000000000e+00 0.000000000000000000e+00 4.356213139000000290e+00 7.268573664999999906e+00 0.000000000000000000e+00 4.160729955999999952e+00 2.281176036000000185e+00 6.858113341000000140e+00
8.578171617000000637e+00 0.000000000000000000e+00 0.000000000000000000e+00 4.250764698000000230e+00 7.258238718000000311e+00 0.000000000000000000e+00 4.259987666999999867e+00 2.388564450000000061e+00 6.978155348999999674e+00
8.630889851999999252e+00 0.000000000000000000e+00 0.000000000000000000e+00 4.230954499000000091e+00 7.409573143000000250e+00 0.000000000000000000e+00 4.211881650999999671e+00 2.572929584000000158e+00 7.084970185999999615e+00
