8.484590000000000742e+00 3.257000000000000173e-02 3.266000000000000153e-02 1.427599999999999980e+00 8.379299999999999526e-01 2.289979999999999905e+00 1.123870999999999931e+01 1.646560000000000024e+00 4.592979999999999841e+00 5.704780000000000406e+00 4.992549999999999599e+00 6.923799999999999955e+00 1.136042999999999914e+01 3.407950000000000035e+00 2.375729999999999897e+00 2.927929999999999922e+00 5.076369999999999827e+00 3.249999999999999851e-03 4.260830000000000339e+00 5.969529999999999781e+00 2.260979999999999990e+00 5.695979999999999599e+00 6.776650000000000063e+00 4.559610000000000163e+00 7.119629999999999903e+00 7.579900000000000304e+00 2.484000000000000097e-02 8.455539999999999168e+00 8.438689999999999358e+00 2.370099999999999874e+00 9.858330000000000481e+00 9.242169999999999774e+00 4.592640000000000278e+00 8.432499999999999218e+00 4.989139999999999908e+00 6.883670000000000400e+00 5.612070000000000114e+00 3.485860000000000181e+00 2.301260000000000083e+00 7.244270000000000209e+00 4.185550000000000104e+00 4.579139999999999766e+00 5.685150000000000148e+00 5.089889999999999581e+00 8.826000000000000512e-02 7.165029999999999788e+00 5.907020000000000159e+00 2.344269999999999854e+00 8.444449999999999790e+00 6.708160000000000345e+00 4.601300000000000168e+00 1.415834000000000081e+01 1.007142999999999944e+01 6.874880000000000102e+00 7.051789999999999559e+00 9.142599999999999616e-01 2.292580000000000062e+00 8.461759999999999948e+00 1.658269999999999911e+00 4.540740000000000443e+00 1.135116999999999976e+01 5.020010000000000083e+00 6.855780000000000207e+00 8.527150000000000674e+00 3.462380000000000013e+00 2.225810000000000066e+00 9.965230000000000032e+00 4.214100000000000179e+00 4.659139999999999837e+00 8.589850000000000207e+00 5.098779999999999646e+00 1.778000000000000067e-02 1.002732999999999919e+01 6.025870000000000282e+00 2.287900000000000045e+00 1.131633000000000067e+01 6.714389999999999858e+00 4.656629999999999825e+00 2.816899999999999959e+00 1.553790000000000004e+00 1.155950000000000033e+00 4.128750000000000142e+00 2.557949999999999946e+00 3.507039999999999935e+00 5.388810000000000322e+00 3.326540000000000052e+00 5.730830000000000091e+00 4.328009999999999913e+00 4.214859999999999829e+00 1.300799999999999956e+00 5.742989999999999817e+00 5.102579999999999671e+00 3.491239999999999899e+00 7.109799999999999898e+00 5.783360000000000056e+00 5.783610000000000362e+00 5.638499999999999623e+00 6.802380000000000315e+00 1.089579999999999993e+00 7.070899999999999963e+00 7.517129999999999868e+00 3.411960000000000104e+00 8.625799999999999912e+00 8.107100000000000861e+00 5.756409999999999805e+00 5.577849999999999753e+00 1.689179999999999904e+00 1.193710000000000049e+00 7.024639999999999773e+00 2.502920000000000034e+00 3.515350000000000197e+00 8.390779999999999461e+00 3.306560000000000166e+00 5.839929999999999843e+00 7.119839999999999947e+00 4.306309999999999860e+00 1.125990000000000046e+00 8.495939999999999159e+00 5.040169999999999817e+00 3.428510000000000169e+00 9.987429999999999808e+00 5.737129999999999619e+00 5.808019999999999960e+00 8.513260000000000716e+00 6.885600000000000165e+00 1.110340000000000105e+00 1.006723000000000035e+01 7.584299999999999820e+00 3.447659999999999947e+00 1.131082999999999927e+01 8.391299999999999315e+00 5.715790000000000148e+00 8.527430000000000732e+00 1.768659999999999899e+00 1.139420000000000099e+00 9.844549999999999912e+00 2.628919999999999924e+00 3.510959999999999859e+00 1.128883000000000081e+01 3.221690000000000165e+00 5.813069999999999737e+00 9.979229999999999379e+00 4.344780000000000086e+00 1.172379999999999978e+00 1.139583000000000013e+01 5.004660000000000331e+00 3.381709999999999994e+00 1.282222999999999935e+01 5.952169999999999739e+00 5.800410000000000288e+00 1.141253000000000029e+01 6.756929999999999659e+00 1.215799999999999992e+00 1.278983000000000025e+01 7.720909999999999940e+00 3.387539999999999996e+00 1.423713000000000051e+01 8.400679999999999481e+00 5.768729999999999691e+00
4.212550000000000239e+00 7.277840000000000309e+00 1.176900000000000029e-01 1.449610000000000065e+00 8.324599999999999778e-01 2.228219999999999867e+00 1.131223999999999918e+01 1.661079999999999890e+00 4.629069999999999574e+00 5.761490000000000222e+00 4.934529999999999639e+00 6.914850000000000385e+00 1.118594000000000044e+01 3.126729999999999787e+00 2.332430000000000003e+00 7.253459999999999575e+00 7.194410000000000416e+00 6.932870000000000310e+00 4.256190000000000140e+00 5.689960000000000129e+00 2.404110000000000191e+00 5.725410000000000110e+00 6.400380000000000180e+00 4.542180000000000106e+00 7.283339999999999925e+00 2.520449999999999857e+00 6.928399999999999892e+00 4.289990000000000414e+00 8.540200000000000014e-01 2.239630000000000010e+00 5.705720000000000347e+00 1.693740000000000023e+00 4.554730000000000167e+00 8.555749999999999744e+00 4.914550000000000196e+00 6.843340000000000423e+00 5.690970000000000084e+00 3.328580000000000094e+00 2.319479999999999986e+00 7.158730000000000260e+00 3.988480000000000025e+00 4.624130000000000074e+00 9.924239999999999284e+00 7.280800000000000161e+00 6.852229999999999599e+00 6.974230000000000373e+00 5.838289999999999758e+00 2.279180000000000206e+00 8.389260000000000161e+00 6.707320000000000171e+00 4.550309999999999633e+00 5.728069999999999773e+00 2.344999999999999862e-02 5.965000000000000163e-02 1.133253999999999984e+01 8.115299999999999514e+00 2.321219999999999839e+00 1.282524000000000086e+01 8.905189999999999273e+00 4.599109999999999587e+00 7.029010000000000424e+00 2.191460000000000186e+00 7.502999999999999947e-02 8.527990000000000848e+00 3.226309999999999789e+00 2.271840000000000082e+00 9.792859999999999232e+00 4.188399999999999679e+00 4.529620000000000424e+00 1.282943999999999996e+01 7.362510000000000332e+00 6.890089999999999826e+00 9.895339999999999137e+00 5.747600000000000264e+00 2.348240000000000105e+00 1.123244000000000042e+01 6.514450000000000074e+00 4.744629999999999903e+00 2.955429999999999779e+00 1.674889999999999990e+00 1.206520000000000037e+00 4.090620000000000367e+00 2.778840000000000199e+00 3.611240000000000006e+00 5.716079999999999828e+00 3.178279999999999994e+00 5.767019999999999591e+00 4.361749999999999794e+00 4.103180000000000049e+00 1.097190000000000110e+00 5.719979999999999620e+00 4.870420000000000194e+00 3.379329999999999945e+00 7.075140000000000207e+00 5.716149999999999842e+00 5.757010000000000183e+00 5.699810000000000265e+00 6.586170000000000080e+00 1.220359999999999889e+00 7.106849999999999667e+00 7.386050000000000004e+00 3.329670000000000130e+00 8.436189999999999856e+00 8.080019999999999314e+00 5.909399999999999764e+00 5.718860000000000277e+00 1.666029999999999900e+00 1.226169999999999982e+00 7.108159999999999812e+00 2.421969999999999956e+00 3.529679999999999929e+00 8.584609999999999630e+00 3.376180000000000181e+00 5.758539999999999992e+00 7.198690000000000033e+00 4.068649999999999878e+00 1.053639999999999910e+00 8.444689999999999586e+00 4.917259999999999742e+00 3.345410000000000217e+00 9.899739999999999540e+00 5.693459999999999965e+00 5.795259999999999856e+00 8.522579999999999600e+00 6.564899999999999736e+00 1.155110000000000081e+00 9.827870000000000772e+00 7.474280000000000257e+00 3.432529999999999859e+00 1.137853999999999921e+01 8.112090000000000245e+00 5.783350000000000435e+00 8.495979999999999421e+00 1.447589999999999932e+00 1.115359999999999907e+00 9.881270000000000664e+00 2.337340000000000195e+00 3.489939999999999820e+00 1.146584000000000003e+01 3.226300000000000168e+00 5.916400000000000325e+00 9.900639999999999219e+00 3.984999999999999876e+00 1.195170000000000066e+00 1.109974000000000061e+01 4.961610000000000298e+00 3.518839999999999968e+00 1.281803999999999988e+01 5.722809999999999953e+00 5.750259999999999927e+00 1.122264000000000017e+01 6.544800000000000395e+00 1.305809999999999915e+00 1.259943999999999953e+01 7.335720000000000240e+00 3.495680000000000121e+00 1.411713999999999913e+01 8.166119999999999379e+00 5.709299999999999820e+00
4.115770000000000373e+00 2.568779999999999841e+00 6.850340000000000096e+00 5.809309999999999974e+00 8.295450000000000657e+00 2.308940000000000214e+00 1.127496000000000009e+01 1.837080000000000046e+00 4.617609999999999992e+00 5.579069999999999752e+00 4.887620000000000076e+00 6.981150000000000411e+00 1.132792000000000066e+01 3.327430000000000110e+00 2.378979999999999873e+00 1.561062000000000083e+01 7.756809999999999761e+00 6.890749999999999709e+00 4.343919999999999781e+00 5.561849999999999739e+00 2.364290000000000003e+00 5.613629999999999676e+00 6.596790000000000376e+00 4.566510000000000069e+00 7.256560000000000343e+00 7.311069999999999958e+00 3.570999999999999869e-02 4.274140000000000050e+00 8.788099999999999801e-01 2.363239999999999785e+00 1.020861999999999981e+01 9.043939999999999202e+00 4.586800000000000210e+00 4.161699999999999733e+00 2.620779999999999887e+00 3.259999999999999704e-02 5.823920000000000208e+00 3.310799999999999965e+00 2.405819999999999848e+00 7.165930000000000355e+00 4.121599999999999930e+00 4.531530000000000058e+00 5.820359999999999978e+00 4.865829999999999878e+00 2.040000000000000147e-03 7.236069999999999780e+00 5.772940000000000182e+00 2.502790000000000070e+00 8.516890000000000072e+00 6.779779999999999696e+00 4.637129999999999974e+00 1.011639000000000088e+01 7.476930000000000298e+00 1.077700000000000047e-01 1.150782000000000060e+01 8.238269999999999982e+00 2.242199999999999971e+00 8.562820000000000320e+00 1.767020000000000035e+00 4.639529999999999710e+00 7.022899999999999920e+00 2.490159999999999929e+00 1.855900000000000050e-01 8.565580000000000638e+00 3.277249999999999996e+00 2.410540000000000127e+00 9.911020000000000607e+00 4.422769999999999868e+00 4.543750000000000178e+00 8.601820000000000022e+00 4.997329999999999828e+00 1.762000000000000025e-02 9.937720000000000553e+00 5.931309999999999860e+00 2.307370000000000143e+00 1.153232000000000035e+01 6.809219999999999828e+00 4.728720000000000034e+00 2.879560000000000120e+00 1.646320000000000006e+00 1.277830000000000021e+00 4.277269999999999683e+00 2.535849999999999937e+00 3.486569999999999947e+00 5.637480000000000047e+00 3.337320000000000064e+00 5.753940000000000055e+00 4.124220000000000219e+00 4.064160000000000217e+00 1.174639999999999906e+00 5.834520000000000373e+00 4.874159999999999826e+00 3.394589999999999996e+00 6.962030000000000385e+00 6.062039999999999651e+00 5.745429999999999815e+00 5.846289999999999765e+00 6.601309999999999789e+00 1.119520000000000071e+00 7.274910000000000210e+00 7.728040000000000020e+00 3.555820000000000203e+00 8.583679999999999310e+00 8.398329999999999629e+00 5.800930000000000142e+00 5.592679999999999652e+00 1.711549999999999905e+00 1.152400000000000091e+00 7.120269999999999655e+00 2.542829999999999924e+00 3.576410000000000089e+00 8.298379999999999868e+00 3.359560000000000102e+00 5.833520000000000039e+00 7.123429999999999929e+00 4.259019999999999584e+00 1.188530000000000086e+00 8.529479999999999507e+00 5.128129999999999633e+00 3.708060000000000134e+00 1.004861999999999966e+01 5.900699999999999612e+00 5.807940000000000325e+00 8.483330000000000481e+00 6.571489999999999831e+00 1.177599999999999980e+00 1.010002000000000066e+01 7.589800000000000324e+00 3.369349999999999845e+00 1.144411999999999985e+01 8.319300000000000139e+00 5.925589999999999691e+00 8.406459999999999155e+00 1.635750000000000037e+00 1.178309999999999969e+00 9.800710000000000477e+00 2.376809999999999867e+00 3.397390000000000132e+00 1.127022000000000013e+01 3.465669999999999806e+00 5.822899999999999743e+00 9.873450000000000060e+00 4.094960000000000377e+00 1.224050000000000082e+00 1.143591999999999942e+01 4.935749999999999638e+00 3.632709999999999884e+00 1.282972000000000001e+01 5.797419999999999796e+00 5.858780000000000321e+00 1.137922000000000011e+01 6.568279999999999674e+00 1.226129999999999942e+00 1.292252000000000045e+01 7.281430000000000291e+00 3.427789999999999893e+00 1.427801999999999971e+01 8.644529999999999603e+00 5.785129999999999661e+00
8.450549999999999784e+00 9.952139999999999986e+00 7.079600000000000115e+00 9.934179999999999566e+00 8.905999999999999472e-01 2.462909999999999933e+00 2.844349999999999934e+00 1.677519999999999900e+00 4.628099999999999881e+00 9.981749999999999901e+00 2.497889999999999944e+00 9.976999999999999758e-02 1.136313999999999957e+01 3.447659999999999947e+00 2.460609999999999964e+00 1.559273999999999916e+01 7.510019999999999918e+00 7.106630000000000003e+00 1.274733999999999945e+01 5.876719999999999722e+00 2.272089999999999943e+00 5.637749999999999595e+00 6.572079999999999700e+00 4.804490000000000371e+00 7.051319999999999588e+00 7.486799999999999677e+00 6.558999999999999553e-02 8.450969999999999871e+00 8.352619999999999933e+00 2.383049999999999891e+00 9.890420000000000655e+00 9.142820000000000391e+00 4.749150000000000205e+00 4.337850000000000428e+00 2.461030000000000051e+00 9.149000000000000188e-02 5.685319999999999929e+00 3.254389999999999894e+00 2.416110000000000202e+00 7.094909999999999606e+00 4.136960000000000193e+00 4.845629999999999882e+00 9.890859999999999985e+00 7.456319999999999837e+00 7.079920000000000435e+00 7.073820000000000441e+00 5.825650000000000439e+00 2.400929999999999787e+00 8.496389999999999887e+00 6.755639999999999645e+00 4.675010000000000332e+00 9.971489999999999299e+00 2.539649999999999963e+00 7.096799999999999997e+00 7.173099999999999810e+00 8.446799999999999864e-01 2.229420000000000179e+00 1.285083999999999982e+01 9.188330000000000553e+00 4.821320000000000050e+00 1.135933999999999955e+01 4.993409999999999904e+00 7.105570000000000164e+00 8.607509999999999550e+00 3.466470000000000162e+00 2.363160000000000149e+00 9.883940000000000836e+00 4.160599999999999632e+00 4.805049999999999599e+00 8.506719999999999615e+00 5.089380000000000237e+00 1.574000000000000052e-02 9.938850000000000406e+00 5.955009999999999692e+00 2.411729999999999929e+00 1.137083999999999939e+01 6.684129999999999683e+00 4.719140000000000335e+00 2.871160000000000156e+00 1.660400000000000098e+00 1.206839999999999913e+00 4.286629999999999718e+00 2.588080000000000158e+00 3.654150000000000009e+00 5.541459999999999830e+00 3.300910000000000011e+00 5.933449999999999669e+00 4.130090000000000039e+00 4.142920000000000158e+00 1.272820000000000062e+00 5.674129999999999896e+00 4.848900000000000432e+00 3.778810000000000002e+00 7.032300000000000217e+00 5.894350000000000200e+00 6.048879999999999590e+00 5.612260000000000026e+00 6.721429999999999794e+00 1.134339999999999904e+00 7.054199999999999804e+00 7.484020000000000117e+00 3.463690000000000158e+00 8.528800000000000381e+00 8.226839999999999264e+00 5.852389999999999759e+00 5.699390000000000178e+00 1.588019999999999987e+00 1.170409999999999950e+00 7.065680000000000405e+00 2.598149999999999959e+00 3.606609999999999872e+00 8.579720000000000013e+00 3.307830000000000048e+00 6.007489999999999775e+00 7.107079999999999842e+00 4.128090000000000259e+00 1.276659999999999906e+00 8.536670000000000869e+00 5.114410000000000345e+00 3.468859999999999832e+00 9.909280000000000754e+00 5.778270000000000017e+00 5.930740000000000123e+00 8.342409999999999215e+00 6.666669999999999874e+00 1.130379999999999940e+00 9.871809999999999974e+00 7.495470000000000077e+00 3.381369999999999987e+00 1.128484000000000087e+01 8.248960000000000292e+00 5.862350000000000172e+00 8.546739999999999782e+00 1.691540000000000044e+00 1.219899999999999984e+00 1.005463999999999913e+01 2.530650000000000066e+00 3.715289999999999981e+00 1.144773999999999958e+01 3.280569999999999986e+00 5.937229999999999563e+00 9.875890000000000057e+00 4.169570000000000221e+00 1.106419999999999959e+00 1.145574000000000048e+01 5.107590000000000074e+00 3.489510000000000112e+00 1.266513999999999918e+01 5.947269999999999612e+00 6.027569999999999872e+00 1.128993999999999964e+01 6.714330000000000354e+00 1.213680000000000092e+00 1.279174000000000078e+01 7.402420000000000222e+00 3.540750000000000064e+00 1.414433999999999969e+01 8.306480000000000530e+00 5.805939999999999657e+00
1.268952999999999953e+01 2.536010000000000097e+00 7.002019999999999911e+00 1.412354000000000021e+01 8.233159999999999812e+00 2.385460000000000136e+00 1.134265000000000079e+01 1.754320000000000102e+00 4.757810000000000095e+00 1.417475999999999914e+01 4.950610000000000177e+00 6.924280000000000435e+00 2.841050000000000075e+00 3.273330000000000073e+00 2.232709999999999972e+00 7.338689999999999714e+00 7.467190000000000438e+00 7.009490000000000443e+00 4.426750000000000185e+00 5.723489999999999966e+00 2.472080000000000055e+00 1.422544000000000075e+01 6.748719999999999608e+00 4.875020000000000131e+00 2.946210000000000218e+00 4.861000000000000043e-02 2.234999999999999834e-02 4.267549999999999955e+00 8.697200000000000486e-01 2.352079999999999949e+00 1.004893999999999998e+01 9.037630000000000052e+00 4.630270000000000330e+00 8.689069999999999183e+00 4.979400000000000048e+00 6.980970000000000120e+00 5.698059999999999903e+00 3.346709999999999852e+00 2.423750000000000071e+00 7.073269999999999946e+00 4.039640000000000342e+00 4.670300000000000118e+00 5.662530000000000285e+00 4.924129999999999896e+00 4.612000000000000127e-02 7.192470000000000141e+00 5.862079999999999735e+00 2.188849999999999962e+00 8.594329999999999359e+00 6.538660000000000139e+00 4.614250000000000185e+00 1.005893999999999977e+01 2.518819999999999837e+00 6.935150000000000148e+00 1.155314000000000085e+01 8.255480000000000373e+00 2.501720000000000166e+00 8.455610000000000070e+00 1.718809999999999949e+00 4.650120000000000253e+00 7.031270000000000131e+00 2.550879999999999814e+00 4.134000000000000175e-02 8.522700000000000387e+00 3.437829999999999941e+00 2.398789999999999978e+00 1.000123999999999924e+01 4.232510000000000439e+00 4.531500000000000306e+00 8.548389999999999489e+00 5.016569999999999752e+00 2.074000000000000149e-02 1.014583999999999975e+01 5.664579999999999949e+00 2.311710000000000154e+00 1.140854000000000035e+01 6.645870000000000388e+00 4.724969999999999892e+00 2.895750000000000046e+00 1.699719999999999898e+00 1.377019999999999911e+00 4.252460000000000129e+00 2.355939999999999923e+00 3.561449999999999783e+00 5.638469999999999871e+00 3.349180000000000046e+00 5.774140000000000050e+00 4.370739999999999625e+00 4.187890000000000335e+00 1.017660000000000009e+00 5.654300000000000104e+00 4.725900000000000212e+00 3.499839999999999840e+00 7.283619999999999983e+00 5.503890000000000171e+00 5.629019999999999690e+00 5.681949999999999612e+00 6.535580000000000389e+00 1.086719999999999908e+00 7.152800000000000047e+00 7.323159999999999670e+00 3.376959999999999962e+00 8.517229999999999634e+00 8.249159999999999826e+00 5.938799999999999635e+00 5.659589999999999677e+00 1.817779999999999951e+00 1.227349999999999941e+00 7.090770000000000017e+00 2.627289999999999903e+00 3.562460000000000182e+00 8.477710000000000079e+00 3.370789999999999953e+00 5.886860000000000426e+00 7.121850000000000236e+00 4.148740000000000094e+00 1.266010000000000080e+00 8.713229999999999364e+00 5.030090000000000394e+00 3.451490000000000169e+00 1.003703999999999930e+01 5.738170000000000215e+00 5.786730000000000373e+00 8.618349999999999511e+00 6.620680000000000121e+00 1.065110000000000001e+00 1.005024000000000051e+01 7.431709999999999816e+00 3.539239999999999942e+00 1.142294000000000054e+01 8.318239999999999412e+00 6.022639999999999993e+00 8.433020000000000849e+00 1.603429999999999911e+00 1.221770000000000023e+00 9.781290000000000262e+00 2.414890000000000203e+00 3.539369999999999905e+00 1.137284000000000006e+01 3.295850000000000168e+00 5.827390000000000292e+00 9.903879999999999129e+00 4.148559999999999803e+00 9.858200000000000296e-01 1.148273999999999972e+01 4.821010000000000240e+00 3.425689999999999902e+00 1.285524000000000022e+01 5.783260000000000289e+00 5.744699999999999918e+00 1.140583999999999953e+01 6.546809999999999796e+00 1.180109999999999992e+00 1.282324000000000019e+01 7.489510000000000112e+00 3.650739999999999874e+00 1.425544000000000011e+01 8.238450000000000273e+00 5.916949999999999932e+00
1.272597999999999985e+01 7.378899999999999793e+00 2.367999999999999966e-02 1.415019000000000027e+01 8.133900000000000574e+00 2.348370000000000068e+00 1.546448000000000000e+01 8.970129999999999271e+00 4.708540000000000170e+00 1.383340000000000014e+00 2.332009999999999916e+00 2.310999999999999860e-02 2.882350000000000190e+00 3.205989999999999895e+00 2.257299999999999862e+00 1.132475999999999949e+01 4.819410000000000416e+00 1.356199999999999906e-01 4.274779999999999802e+00 5.645889999999999631e+00 2.467490000000000183e+00 1.413438000000000017e+01 6.601020000000000110e+00 4.625079999999999636e+00 2.988910000000000178e+00 1.161900000000000016e-01 5.080000000000000314e-03 8.503819999999999268e+00 8.139979999999999549e+00 2.270579999999999821e+00 9.984939999999999927e+00 8.844139999999999446e+00 4.667849999999999611e+00 8.641280000000000072e+00 5.052389999999999937e+00 6.924509999999999721e+00 5.737289999999999779e+00 3.377909999999999968e+00 2.321429999999999882e+00 7.180250000000000021e+00 4.102960000000000385e+00 4.572860000000000369e+00 5.623680000000000234e+00 4.974879999999999747e+00 2.710000000000000169e-03 7.177880000000000038e+00 5.652169999999999916e+00 2.292419999999999902e+00 8.546319999999999695e+00 6.368430000000000035e+00 4.558500000000000441e+00 9.803020000000000067e+00 2.418460000000000054e+00 6.813019999999999854e+00 7.075050000000000061e+00 7.646300000000000319e-01 2.184390000000000054e+00 8.471780000000000754e+00 1.612710000000000088e+00 4.679269999999999818e+00 1.143368000000000073e+01 4.829579999999999984e+00 6.803980000000000139e+00 8.556680000000000064e+00 3.292040000000000077e+00 2.378289999999999793e+00 9.913779999999999148e+00 3.970920000000000005e+00 4.622969999999999580e+00 1.268535999999999930e+01 7.148839999999999861e+00 6.799000000000000377e+00 9.890259999999999607e+00 5.666660000000000252e+00 2.527499999999999858e+00 1.122478000000000087e+01 6.401460000000000150e+00 4.710849999999999760e+00 2.815090000000000092e+00 1.791749999999999954e+00 1.125890000000000057e+00 4.173000000000000043e+00 2.439830000000000165e+00 3.693340000000000067e+00 5.825849999999999973e+00 3.201280000000000125e+00 5.789589999999999570e+00 4.118310000000000137e+00 4.025949999999999918e+00 1.197549999999999892e+00 5.637769999999999726e+00 4.943459999999999965e+00 3.369159999999999933e+00 7.155350000000000321e+00 5.684630000000000294e+00 5.797979999999999912e+00 5.653369999999999784e+00 6.591380000000000017e+00 1.217230000000000034e+00 7.230290000000000106e+00 7.366050000000000431e+00 3.509520000000000195e+00 8.525619999999999976e+00 8.052970000000000184e+00 5.817409999999999748e+00 5.712430000000000341e+00 1.790750000000000064e+00 1.167419999999999902e+00 7.180150000000000254e+00 2.247059999999999835e+00 3.541059999999999874e+00 8.565009999999999124e+00 3.162170000000000147e+00 5.729470000000000063e+00 7.100850000000000328e+00 4.112149999999999750e+00 1.207799999999999985e+00 8.374660000000000437e+00 4.787149999999999572e+00 3.377209999999999823e+00 9.842140000000000555e+00 5.703949999999999854e+00 5.749869999999999592e+00 8.564650000000000318e+00 6.592640000000000278e+00 1.122330000000000050e+00 9.795749999999999957e+00 7.239090000000000025e+00 3.488100000000000200e+00 1.128748000000000040e+01 8.271200000000000330e+00 5.946060000000000123e+00 8.458050000000000068e+00 1.600510000000000099e+00 1.049779999999999935e+00 1.007548000000000066e+01 2.423719999999999875e+00 3.478400000000000158e+00 1.126318000000000019e+01 3.178830000000000044e+00 5.911369999999999791e+00 9.745020000000000238e+00 4.120669999999999611e+00 1.248979999999999979e+00 1.133398000000000039e+01 4.998409999999999798e+00 3.551260000000000083e+00 1.269037999999999933e+01 5.693310000000000315e+00 5.707709999999999617e+00 1.141357999999999961e+01 6.561090000000000089e+00 1.095569999999999933e+00 1.285918000000000028e+01 7.270100000000000229e+00 3.436059999999999892e+00 1.401347999999999949e+01 8.076650000000000773e+00 5.720320000000000071e+00
4.473279999999999923e+00 7.388799999999999812e+00 1.150700000000000056e-01 9.912129999999999441e+00 8.250199999999999756e-01 2.327030000000000154e+00 2.854750000000000121e+00 1.505460000000000020e+00 4.462299999999999933e+00 5.752250000000000085e+00 4.761470000000000091e+00 6.859980000000000189e+00 1.137260000000000026e+01 3.328939999999999788e+00 2.301449999999999996e+00 3.005110000000000170e+00 4.913579999999999615e+00 2.117000000000000132e-02 4.388880000000000337e+00 5.581319999999999837e+00 2.347360000000000113e+00 5.716179999999999595e+00 6.453190000000000204e+00 4.456540000000000390e+00 7.303819999999999979e+00 7.337979999999999947e+00 5.985000000000000042e-02 4.167480000000000295e+00 8.349999999999999645e-01 2.181519999999999904e+00 1.005045999999999928e+01 8.900190000000000268e+00 4.641560000000000130e+00 8.458640000000000825e+00 4.804610000000000269e+00 6.862989999999999924e+00 5.705059999999999576e+00 3.214830000000000076e+00 2.382719999999999949e+00 7.234750000000000014e+00 3.947340000000000071e+00 4.511720000000000397e+00 5.773670000000000080e+00 4.795010000000000439e+00 1.337599999999999900e-01 7.153559999999999697e+00 5.643360000000000376e+00 2.237649999999999917e+00 8.573790000000000688e+00 6.526539999999999786e+00 4.536039999999999850e+00 1.005241000000000007e+01 7.357660000000000089e+00 1.915999999999999995e-02 7.094199999999999839e+00 7.896900000000000031e-01 2.323989999999999778e+00 1.294935000000000080e+01 8.822609999999999175e+00 4.699150000000000382e+00 7.225159999999999805e+00 2.407509999999999817e+00 2.059000000000000066e-02 8.557330000000000325e+00 3.239720000000000155e+00 2.254750000000000032e+00 9.995229999999999393e+00 3.955449999999999910e+00 4.679789999999999672e+00 8.685639999999999361e+00 4.811009999999999565e+00 1.410000000000000012e-03 9.888199999999999434e+00 5.655109999999999637e+00 2.311519999999999797e+00 1.142198999999999920e+01 6.601560000000000095e+00 4.511549999999999727e+00 2.847399999999999931e+00 1.584940000000000015e+00 1.102179999999999938e+00 4.181639999999999802e+00 2.360180000000000167e+00 3.332570000000000032e+00 5.657680000000000042e+00 3.048420000000000130e+00 5.749509999999999899e+00 4.207849999999999646e+00 4.132200000000000095e+00 1.249640000000000084e+00 5.803589999999999804e+00 4.861060000000000159e+00 3.451270000000000060e+00 7.109490000000000087e+00 5.462299999999999933e+00 5.752189999999999692e+00 5.877500000000000391e+00 6.539060000000000095e+00 1.205510000000000081e+00 7.088099999999999845e+00 7.224249999999999616e+00 3.421019999999999950e+00 8.644769999999999399e+00 8.021449999999999747e+00 5.809339999999999726e+00 5.693830000000000169e+00 1.714050000000000074e+00 1.125000000000000000e+00 6.956380000000000230e+00 2.301800000000000068e+00 3.504410000000000025e+00 8.514849999999999142e+00 3.145049999999999901e+00 5.820850000000000080e+00 7.159019999999999939e+00 4.009210000000000385e+00 1.193100000000000049e+00 8.545329999999999870e+00 4.725489999999999746e+00 3.491190000000000015e+00 9.936609999999999943e+00 5.648130000000000095e+00 5.630359999999999587e+00 8.698800000000000310e+00 6.439219999999999722e+00 1.162819999999999965e+00 9.960520000000000707e+00 7.304610000000000269e+00 3.312469999999999803e+00 1.138329000000000057e+01 8.113220000000000098e+00 5.813559999999999839e+00 8.645490000000000563e+00 1.676730000000000054e+00 1.157259999999999955e+00 9.947400000000000020e+00 2.416450000000000209e+00 3.441759999999999931e+00 1.143679000000000023e+01 3.109230000000000160e+00 5.753479999999999706e+00 1.003680999999999912e+01 3.972090000000000121e+00 1.020750000000000046e+00 1.137879000000000040e+01 4.807249999999999801e+00 3.530320000000000125e+00 1.271019000000000077e+01 5.639910000000000423e+00 5.768200000000000216e+00 1.145799000000000056e+01 6.734930000000000305e+00 1.113410000000000011e+00 1.290738999999999947e+01 7.234110000000000262e+00 3.338999999999999968e+00 1.431298999999999921e+01 8.087889999999999802e+00 5.734350000000000058e+00