8.463107779999999636e+00 0.000000000000000000e+00 0.000000000000000000e+00 4.353982081999999920e+00 7.349567395000000225e+00 0.000000000000000000e+00 4.179274912000000342e+00 2.545260335000000040e+00 6.916632748999999691e+00
8.589163715999999837e+00 0.000000000000000000e+00 0.000000000000000000e+00 4.285274432999999661e+00 7.421839667000000418e+00 0.000000000000000000e+00 4.317404949000000158e+00 2.509604937999999841e+00 6.992818555999999575e+00
8.548492116000000252e+00 0.000000000000000000e+00 0.000000000000000000e+00 4.233130639999999723e+00 7.405668344000000403e+00 0.000000000000000000e+00 4.261479131999999836e+00 2.395340920000000207e+00 6.924239280000000107e+00
8.426644543000000098e+00 0.000000000000000000e+00 0.000000000000000000e+00 4.213446560000000396e+00 7.295431123000000184e+00 0.000000000000000000e+00 4.207346827000000289e+00 2.437817282999999779e+00 6.875659245999999669e+00
8.501818558000000081e+00 0.000000000000000000e+00 0.000000000000000000e+00 4.244239121999999753e+00 7.344835796999999999e+00 0.000000000000000000e+00 4.273934850999999924e+00 2.428145262000000137e+00 6.949733102999999801e+00
8.538453544999999423e+00 0.000000000000000000e+00 0.000000000000000000e+00 4.251285719000000185e+00 7.405769659999999810e+00 0.000000000000000000e+00 4.284743608000000314e+00 2.533681876000000166e+00 6.957058069000000344e+00
8.533933231000000674e+00 0.000000000000000000e+00 0.000000000000000000e+00 4.276135792999999907e+00 7.409979118999999947e+00 0.000000000000000000e+00 4.236681056000000112e+00 2.459856648000000146e+00 6.971778624999999785e+00
8.563857722999999922e+00 0.000000000000000000e+00 0.000000000000000000e+00 4.390772108000000173e+00 7.410072941000000135e+00 0.000000000000000000e+00 4.189877394999999893e+00 2.448959082000000009e+00 6.987180046999999838e+00
8.530615329999999830e+00 0.000000000000000000e+00 0.000000000000000000e+00 4.177229104000000248e+00 7.360302418999999929e+00 0.000000000000000000e+00 4.312682922999999668e+00 2.383261812999999840e+00 6.958303575000000407e+00
8.517236975999999515e+00 0.000000000000000000e+00 0.000000000000000000e+00 4.288424684999999847e+00 7.365140159000000075e+00 0.000000000000000000e+00 4.248167675000000365e+00 2.437917112000000053e+00 6.964909127000000311e+00
8.536091812000000445e+00 0.000000000000000000e+00 0.000000000000000000e+00 4.270929189000000292e+00 7.473931212000000102e+00 0.000000000000000000e+00 4.292975111999999704e+00 2.490663115999999899e+00 6.966887730999999917e+00
8.551010306000000227e+00 0.000000000000000000e+00 0.000000000000000000e+00 4.295577299999999710e+00 7.357254166999999789e+00 0.000000000000000000e+00 4.275929772999999656e+00 2.499722264999999943e+00 6.957654445000000187e+00
8.591906985999999691e+00 0.000000000000000000e+00 0.000000000000000000e+00 4.279809108000000251e+00 7.332841407000000089e+00 0.000000000000000000e+00 4.298037592000000018e+00 2.499462516999999995e+00 6.893528674999999772e+00
8.502986685999999850e+00 0.000000000000000000e+00 0.000000000000000000e+00 4.287626730999999580e+00 7.429721339000000313e+00 0.000000000000000000e+00 4.245254190999999899e+00 2.568236535000000043e+00 6.965044058000000149e+00
8.586582245000000668e+00 0.000000000000000000e+00 0.000000000000000000e+00 4.391953005999999604e+00 7.393163737000000069e+00 0.000000000000000000e+00 4.196227598000000114e+00 2.429106639000000012e+00 7.010152425000000243e+00
8.574852485999999274e+00 0.000000000000000000e+00 0.000000000000000000e+00 4.368407229999999863e+00 7.415194402000000018e+00 0.000000000000000000e+00 4.234480802000000210e+00 2.459894745999999799e+00 6.994370658000000240e+00
8.447278986000000600e+00 0.000000000000000000e+00 0.000000000000000000e+00 4.227156905000000187e+00 7.311454507999999741e+00 0.000000000000000000e+00 4.218439593000000265e+00 2.427121812000000212e+00 6.892729250000000363e+00
8.597979972999999276e+00 0.000000000000000000e+00 0.000000000000000000e+00 4.222003854999999639e+00 7.446635073000000382e+00 0.000000000000000000e+00 4.358046348000000236e+00 2.374123921999999887e+00 7.007122243999999611e+00
8.729518436999999409e+00 0.000000000000000000e+00 0.000000000000000000e+00 4.329466812999999803e+00 7.320337381999999948e+00 0.000000000000000000e+00 4.518333607999999835e+00 2.311843443999999970e+00 6.988535761999999707e+00
8.433078971000000479e+00 0.000000000000000000e+00 0.000000000000000000e+00 4.246714171999999898e+00 7.339879300999999856e+00 0.000000000000000000e+00 4.196666078999999883e+00 2.473028089000000040e+00 6.882910891999999947e+00
8.571915789000000174e+00 0.000000000000000000e+00 0.000000000000000000e+00 4.291509383000000177e+00 7.454399133999999982e+00 0.000000000000000000e+00 4.211648595999999856e+00 2.492957260999999924e+00 7.021673122000000156e+00
8.547071917000000241e+00 0.000000000000000000e+00 0.000000000000000000e+00 4.173843512999999561e+00 7.424353905000000253e+00 0.000000000000000000e+00 4.343001223999999993e+00 2.341444418000000027e+00 7.001114444999999797e+00
8.518600247000000181e+00 0.000000000000000000e+00 0.000000000000000000e+00 4.283615788999999729e+00 7.387263514999999892e+00 0.000000000000000000e+00 4.241181939999999706e+00 2.428622558999999903e+00 6.952776746999999702e+00
8.473244095000000087e+00 0.000000000000000000e+00 0.000000000000000000e+00 4.242061400999999954e+00 7.323982857999999929e+00 0.000000000000000000e+00 4.251565084000000105e+00 2.428040633999999809e+00 6.919700146000000274e+00
8.487507947999999303e+00 0.000000000000000000e+00 0.000000000000000000e+00 4.231848854999999965e+00 7.400814989999999760e+00 0.000000000000000000e+00 4.248852185999999698e+00 2.440374613999999998e+00 6.976835956000000394e+00
8.408216612000000367e+00 0.000000000000000000e+00 0.000000000000000000e+00 4.173457797000000191e+00 7.278232110000000255e+00 0.000000000000000000e+00 4.225464920000000291e+00 2.422004518000000051e+00 6.854800134999999628e+00
8.577071545000000796e+00 0.000000000000000000e+00 0.000000000000000000e+00 4.259815181999999645e+00 7.425870257999999779e+00 0.000000000000000000e+00 4.336628347000000439e+00 2.472407430000000073e+00 6.997464341999999782e+00
8.504993872000000010e+00 0.000000000000000000e+00 0.000000000000000000e+00 4.252351481999999905e+00 7.365438161000000150e+00 0.000000000000000000e+00 4.251942460000000423e+00 2.455081219000000203e+00 6.943227946000000372e+00
8.456690405999999882e+00 0.000000000000000000e+00 0.000000000000000000e+00 4.243549390000000088e+00 7.310113262999999861e+00 0.000000000000000000e+00 4.213349344000000052e+00 2.396386022999999810e+00 6.913897887000000075e+00
8.538331229000000633e+00 0.000000000000000000e+00 0.000000000000000000e+00 4.221280239000000378e+00 7.380426142000000134e+00 0.000000000000000000e+00 4.306277813000000343e+00 2.408184032999999946e+00 6.992328986000000413e+00
8.462499870000000257e+00 0.000000000000000000e+00 0.000000000000000000e+00 4.239026936000000134e+00 7.321393496999999861e+00 0.000000000000000000e+00 4.239082814999999727e+00 2.436472343000000151e+00 6.901916584000000299e+00
8.549093867999999929e+00 0.000000000000000000e+00 0.000000000000000000e+00 4.332607540999999785e+00 7.373329001000000105e+00 0.000000000000000000e+00 4.204670420000000242e+00 2.532060539000000166e+00 6.912600889000000137e+00
8.446586681999999513e+00 0.000000000000000000e+00 0.000000000000000000e+00 4.185861511999999784e+00 7.336457313000000369e+00 0.000000000000000000e+00 4.246094595999999832e+00 2.444997744999999778e+00 6.903567566999999627e+00
8.553592434000000466e+00 0.000000000000000000e+00 0.000000000000000000e+00 4.277445583000000440e+00 7.324999065000000087e+00 0.000000000000000000e+00 4.265398108000000299e+00 2.435378839999999823e+00 6.935745683000000383e+00
8.574397986999999333e+00 0.000000000000000000e+00 0.000000000000000000e+00 4.260714816000000127e+00 7.319756278999999921e+00 0.000000000000000000e+00 4.322392518000000017e+00 2.452064499000000009e+00 6.938162387000000209e+00
8.539335461000000294e+00 0.000000000000000000e+00 0.000000000000000000e+00 4.235127789999999948e+00 7.368771945999999851e+00 0.000000000000000000e+00 4.299869603000000318e+00 2.421325502000000185e+00 6.956912585000000426e+00
8.603540238000000784e+00 0.000000000000000000e+00 0.000000000000000000e+00 4.330999671999999912e+00 7.378112969000000021e+00 0.000000000000000000e+00 4.308539144000000043e+00 2.462022420999999905e+00 6.956203289000000289e+00
8.451489645000000550e+00 0.000000000000000000e+00 0.000000000000000000e+00 4.235036589999999990e+00 7.360029391000000309e+00 0.000000000000000000e+00 4.228934966999999823e+00 2.455618203999999860e+00 6.983041588999999938e+00
8.508739536000000214e+00 0.000000000000000000e+00 0.000000000000000000e+00 4.317166809999999799e+00 7.438044053999999683e+00 0.000000000000000000e+00 4.295046647000000384e+00 2.572587588999999841e+00 7.041386086000000155e+00
8.535155567000000332e+00 0.000000000000000000e+00 0.000000000000000000e+00 4.292125816999999621e+00 7.349976809000000166e+00 0.000000000000000000e+00 4.247773989999999777e+00 2.504613631999999868e+00 6.941544712999999867e+00
8.434649892999999565e+00 0.000000000000000000e+00 0.000000000000000000e+00 4.231648245999999780e+00 7.307254737000000056e+00 0.000000000000000000e+00 4.193694347000000100e+00 2.434293493999999836e+00 6.894717879999999965e+00
8.588430960000000169e+00 0.000000000000000000e+00 0.000000000000000000e+00 4.279449950000000058e+00 7.418037381999999624e+00 0.000000000000000000e+00 4.293297403999999595e+00 2.453581082999999996e+00 6.921350420999999642e+00
8.415007781999999992e+00 0.000000000000000000e+00 0.000000000000000000e+00 4.297606443000000276e+00 7.293261936000000389e+00 0.000000000000000000e+00 4.174266718000000154e+00 2.574785621999999830e+00 6.923099456000000096e+00
8.507364738999999787e+00 0.000000000000000000e+00 0.000000000000000000e+00 4.252735161999999569e+00 7.367121140000000068e+00 0.000000000000000000e+00 4.263040164999999604e+00 2.453053274000000172e+00 6.940875058999999681e+00
8.677596837999999480e+00 0.000000000000000000e+00 0.000000000000000000e+00 4.302857080999999972e+00 7.311673898999999643e+00 0.000000000000000000e+00 4.469947444999999853e+00 2.302341575999999890e+00 6.967040508000000187e+00
8.526651636000000423e+00 0.000000000000000000e+00 0.000000000000000000e+00 4.261592053000000213e+00 7.379090402000000104e+00 0.000000000000000000e+00 4.267079138999999799e+00 2.441385878999999814e+00 6.944970932000000374e+00
8.448170372999999955e+00 0.000000000000000000e+00 0.000000000000000000e+00 4.151460514000000046e+00 7.301124131999999989e+00 0.000000000000000000e+00 4.276228947999999974e+00 2.370821154000000153e+00 6.881298003999999580e+00
8.560516426999999595e+00 0.000000000000000000e+00 0.000000000000000000e+00 4.269190140000000078e+00 7.388103219999999638e+00 0.000000000000000000e+00 4.296600608000000321e+00 2.351858468000000091e+00 6.992884528000000266e+00
8.527039167999999947e+00 0.000000000000000000e+00 0.000000000000000000e+00 4.251199960000000111e+00 7.344190515000000197e+00 0.000000000000000000e+00 4.254115687999999729e+00 2.498172631000000088e+00 7.003577178999999653e+00
8.591465501000000060e+00 0.000000000000000000e+00 0.000000000000000000e+00 4.280353163000000016e+00 7.416600114000000410e+00 0.000000000000000000e+00 4.298824638000000142e+00 2.348136085000000151e+00 7.024474395000000371e+00
