1.544740000000000002e+00 9.650800000000000489e-01 4.403100000000000236e+00 1.790969999999999951e+00 1.110309999999999908e+00 1.015939000000000014e+01 5.555999999999999828e-02 3.643460000000000143e+00 4.540879999999999583e+00 -1.010000000000000064e-01 3.591559999999999864e+00 9.735519999999999285e+00 4.751990000000000158e+00 9.973199999999999843e-01 4.477159999999999584e+00 4.734420000000000073e+00 8.711100000000000509e-01 9.656029999999999447e+00 3.211770000000000014e+00 3.685820000000000096e+00 4.565360000000000085e+00 3.123479999999999812e+00 3.486069999999999780e+00 9.771919999999999717e+00 -9.128000000000000003e-02 1.784750000000000059e+00 1.886120000000000019e+00 4.200000000000000174e-04 1.843369999999999953e+00 7.032759999999999678e+00 -1.644870000000000054e+00 4.597999999999999865e+00 1.921650000000000080e+00 -1.557849999999999957e+00 4.383829999999999671e+00 6.991270000000000095e+00 3.140950000000000131e+00 1.805549999999999988e+00 1.989950000000000108e+00 3.119769999999999932e+00 1.795109999999999983e+00 7.029790000000000205e+00 1.512780000000000014e+00 4.648189999999999600e+00 1.877280000000000060e+00 1.590100000000000069e+00 4.450099999999999945e+00 7.111060000000000159e+00 1.069739999999999913e+00 4.266800000000000037e-01 9.185769999999999769e+00 1.568869999999999987e+00 9.036899999999999933e-01 2.409199999999999786e+00 1.584549999999999903e+00 8.546899999999999498e-01 7.519289999999999807e+00 4.701000000000000317e-02 3.608680000000000110e+00 2.561269999999999936e+00 -3.697000000000000286e-02 3.588820000000000121e+00 7.756770000000000387e+00 4.754559999999999675e+00 9.427200000000000024e-01 2.582959999999999923e+00 4.759299999999999642e+00 9.032700000000000173e-01 7.677889999999999660e+00 3.089770000000000127e+00 3.568839999999999790e+00 2.590160000000000018e+00 3.215520000000000156e+00 3.548709999999999809e+00 7.796789999999999665e+00 -7.914999999999999813e-02 1.867939999999999934e+00 5.084819999999999673e+00 -9.944000000000000061e-02 1.784929999999999906e+00 1.031085000000000029e+01 -1.527239999999999931e+00 4.586439999999999628e+00 5.115160000000000373e+00 -1.675380000000000091e+00 4.515769999999999840e+00 8.129000000000000115e-02 3.148649999999999949e+00 1.844580000000000108e+00 5.112709999999999866e+00 3.409260000000000179e+00 1.937189999999999968e+00 1.324400000000000022e-01 1.602370000000000072e+00 4.520900000000000141e+00 5.234200000000000408e+00 1.514720000000000066e+00 4.528279999999999639e+00 1.033825000000000038e+01
1.385890000000000066e+00 1.067620000000000013e+00 4.280240000000000045e+00 1.152859999999999996e+00 1.066130000000000022e+00 2.215900000000000092e-01 -3.193000000000000005e-02 3.912939999999999863e+00 4.224610000000000198e+00 -9.743999999999999884e-02 4.020430000000000170e+00 9.226760000000000517e+00 4.544710000000000250e+00 1.319600000000000106e+00 4.165680000000000049e+00 4.510010000000000296e+00 1.277279999999999971e+00 9.195349999999999469e+00 2.854839999999999822e+00 3.837060000000000137e+00 4.159360000000000390e+00 2.877279999999999838e+00 3.955849999999999866e+00 9.001279999999999504e+00 -6.303999999999999881e-02 2.031509999999999927e+00 2.062209999999999877e+00 -9.102999999999999980e-02 1.845320000000000071e+00 6.887859999999999872e+00 -1.772119999999999918e+00 4.584649999999999892e+00 1.856409999999999894e+00 -1.560279999999999889e+00 4.528699999999999726e+00 6.574510000000000076e+00 3.054539999999999811e+00 1.728739999999999943e+00 2.045619999999999994e+00 2.837800000000000100e+00 2.143590000000000106e+00 6.547170000000000378e+00 1.479519999999999946e+00 4.633479999999999599e+00 1.719619999999999926e+00 1.258299999999999974e+00 4.917060000000000208e+00 6.795609999999999928e+00 1.840649999999999897e+00 1.237579999999999902e+00 8.813430000000000319e+00 1.435820000000000096e+00 9.906700000000000506e-01 2.378390000000000004e+00 1.428660000000000041e+00 9.539299999999999446e-01 7.047450000000000436e+00 -1.361799999999999955e-01 3.799080000000000013e+00 2.430060000000000109e+00 3.930000000000000333e-03 3.725569999999999826e+00 7.431809999999999583e+00 4.737390000000000434e+00 9.048300000000000232e-01 2.551159999999999872e+00 4.230839999999999712e+00 1.133420000000000094e+00 7.482759999999999856e+00 2.904609999999999914e+00 3.724580000000000002e+00 2.358249999999999957e+00 2.894099999999999895e+00 3.895179999999999865e+00 7.250949999999999562e+00 4.318999999999999923e-02 2.071629999999999860e+00 5.005740000000000300e+00 -2.590899999999999870e-01 2.088999999999999968e+00 7.885999999999999954e-02 -1.752660000000000107e+00 4.490240000000000009e+00 4.810889999999999667e+00 -1.679079999999999906e+00 4.956109999999999793e+00 9.756420000000000314e+00 2.866019999999999790e+00 2.028169999999999806e+00 4.726799999999999891e+00 3.056329999999999991e+00 1.795760000000000023e+00 1.562000000000000020e-02 1.453160000000000007e+00 4.905260000000000176e+00 4.805579999999999963e+00 1.380100000000000104e+00 5.028629999999999711e+00 9.839489999999999625e+00
1.548019999999999952e+00 9.835099999999999953e-01 4.265620000000000189e+00 1.794149999999999912e+00 9.384099999999999664e-01 9.733090000000000686e+00 1.185999999999999971e-01 3.690409999999999968e+00 4.248389999999999667e+00 1.134399999999999992e-01 3.739930000000000199e+00 9.148220000000000240e+00 4.600439999999999863e+00 9.505299999999999860e-01 4.253510000000000346e+00 4.631059999999999732e+00 1.057730000000000059e+00 9.146549999999999514e+00 3.114669999999999828e+00 3.670949999999999935e+00 4.290099999999999802e+00 3.193779999999999841e+00 3.718469999999999942e+00 9.173059999999999548e+00 7.299999999999999632e-04 1.868060000000000054e+00 1.864340000000000108e+00 -1.190000000000000085e-02 1.957379999999999898e+00 6.553469999999999906e+00 -1.443999999999999950e+00 4.471099999999999852e+00 1.933289999999999953e+00 -1.394640000000000102e+00 4.561060000000000336e+00 6.647470000000000212e+00 3.121010000000000062e+00 1.874060000000000059e+00 1.928849999999999953e+00 3.140820000000000167e+00 1.913529999999999953e+00 6.641309999999999825e+00 1.615169999999999995e+00 4.528450000000000308e+00 1.802999999999999936e+00 1.656430000000000069e+00 4.585700000000000109e+00 6.752769999999999939e+00 1.163939999999999975e+00 1.289539999999999909e+00 8.590469999999999828e+00 1.545029999999999903e+00 9.556900000000000395e-01 2.336679999999999868e+00 1.534939999999999971e+00 1.039770000000000083e+00 6.896889999999999965e+00 9.356000000000000427e-02 3.647060000000000191e+00 2.427210000000000090e+00 1.123399999999999954e-01 3.680190000000000072e+00 7.267979999999999663e+00 4.596779999999999866e+00 9.431199999999999584e-01 2.429539999999999811e+00 4.642529999999999824e+00 1.040880000000000027e+00 7.269499999999999851e+00 3.096799999999999997e+00 3.650549999999999962e+00 2.454750000000000210e+00 3.183600000000000207e+00 3.697540000000000049e+00 7.279899999999999594e+00 2.476000000000000076e-02 1.904449999999999976e+00 4.741950000000000109e+00 -5.766999999999999904e-02 1.862139999999999906e+00 3.099999999999999999e-04 -1.400169999999999915e+00 4.537309999999999732e+00 4.792570000000000441e+00 -1.443920000000000092e+00 4.378199999999999648e+00 1.026299999999999990e-01 3.123530000000000140e+00 1.895780000000000021e+00 4.780990000000000073e+00 3.185389999999999944e+00 1.872749999999999915e+00 9.417999999999999983e-02 1.635999999999999899e+00 4.564589999999999925e+00 4.886549999999999727e+00 1.670739999999999892e+00 4.626100000000000101e+00 9.717439999999999856e+00
1.551160000000000094e+00 9.619499999999999718e-01 4.335849999999999760e+00 1.699009999999999909e+00 1.022720000000000073e+00 4.710000000000000298e-02 6.647000000000000131e-02 3.653399999999999981e+00 4.293680000000000163e+00 2.997999999999999970e-02 3.606030000000000069e+00 9.351380000000000692e+00 4.643819999999999837e+00 9.311300000000000132e-01 4.360219999999999985e+00 4.638609999999999900e+00 9.573399999999999688e-01 9.379390000000000782e+00 3.099149999999999849e+00 3.665369999999999795e+00 4.374119999999999564e+00 3.113929999999999865e+00 3.584940000000000015e+00 9.390599999999999170e+00 -1.960999999999999896e-02 1.833220000000000072e+00 1.908539999999999903e+00 1.188999999999999953e-02 1.871969999999999912e+00 6.761660000000000004e+00 -1.528799999999999937e+00 4.507839999999999847e+00 1.895369999999999999e+00 -1.473980000000000068e+00 4.454989999999999561e+00 6.748840000000000394e+00 3.126050000000000217e+00 1.893780000000000019e+00 2.006740000000000190e+00 3.150250000000000217e+00 1.875920000000000032e+00 6.842760000000000176e+00 1.550130000000000008e+00 4.530219999999999914e+00 1.817660000000000053e+00 1.586109999999999909e+00 4.519999999999999574e+00 6.885519999999999641e+00 1.115850000000000009e+00 6.603599999999999470e-01 8.893919999999999604e+00 1.581420000000000048e+00 9.630100000000000326e-01 2.409349999999999881e+00 1.559760000000000035e+00 9.235400000000000276e-01 7.166350000000000442e+00 9.509999999999999357e-03 3.619390000000000107e+00 2.435729999999999951e+00 1.444999999999999930e-02 3.630780000000000118e+00 7.437479999999999869e+00 4.628750000000000142e+00 9.224200000000000177e-01 2.470340000000000202e+00 4.667119999999999713e+00 9.524399999999999533e-01 7.453190000000000204e+00 3.095709999999999962e+00 3.695520000000000138e+00 2.473809999999999842e+00 3.150999999999999801e+00 3.649469999999999992e+00 7.461920000000000108e+00 4.409999999999999858e-03 1.869050000000000100e+00 4.886770000000000280e+00 2.259999999999999856e-03 1.834289999999999976e+00 9.979580000000000339e+00 -1.473519999999999941e+00 4.526030000000000442e+00 4.864819999999999922e+00 -1.487959999999999949e+00 4.493059999999999832e+00 9.976069999999999993e+00 3.119099999999999984e+00 1.866900000000000004e+00 4.937500000000000000e+00 3.257569999999999855e+00 1.927079999999999904e+00 1.419199999999999906e-01 1.589199999999999946e+00 4.548169999999999824e+00 4.997320000000000206e+00 1.584300000000000042e+00 4.511269999999999669e+00 9.941250000000000142e+00
1.588770000000000016e+00 9.977899999999999547e-01 4.426700000000000301e+00 1.717289999999999983e+00 1.093380000000000019e+00 9.934879999999999711e+00 1.066099999999999964e-01 3.847269999999999968e+00 4.252769999999999939e+00 2.239000000000000018e-02 3.639499999999999957e+00 9.381660000000000110e+00 4.796759999999999913e+00 9.292399999999999549e-01 4.326349999999999696e+00 4.724619999999999820e+00 8.875199999999999756e-01 9.303539999999999921e+00 3.180979999999999919e+00 3.687040000000000095e+00 4.370490000000000208e+00 3.154110000000000191e+00 3.510470000000000201e+00 9.438000000000000611e+00 3.028000000000000136e-02 1.826179999999999914e+00 1.902789999999999981e+00 -3.518000000000000294e-02 2.043050000000000033e+00 6.871990000000000265e+00 -1.612519999999999953e+00 4.448570000000000135e+00 1.980299999999999949e+00 -1.452420000000000044e+00 4.613220000000000098e+00 6.766750000000000043e+00 3.111209999999999809e+00 1.832379999999999898e+00 1.980210000000000026e+00 3.238230000000000164e+00 1.925920000000000076e+00 6.779980000000000118e+00 1.575380000000000003e+00 4.538269999999999804e+00 1.778340000000000032e+00 1.611990000000000034e+00 4.512699999999999712e+00 6.900210000000000399e+00 1.178739999999999899e+00 6.259000000000000119e-01 8.805469999999999686e+00 1.597040000000000015e+00 8.643100000000000227e-01 2.483210000000000139e+00 1.610849999999999893e+00 1.149599999999999955e+00 7.166319999999999801e+00 1.095700000000000007e-01 3.729169999999999874e+00 2.424949999999999939e+00 1.512799999999999978e-01 3.724540000000000184e+00 7.443670000000000009e+00 4.612420000000000186e+00 1.006410000000000027e+00 2.494920000000000027e+00 4.686860000000000248e+00 1.010140000000000038e+00 7.495639999999999858e+00 2.989970000000000017e+00 3.568090000000000206e+00 2.525030000000000108e+00 3.311939999999999884e+00 3.732889999999999819e+00 7.514549999999999841e+00 1.443200000000000038e-01 1.994969999999999910e+00 4.884599999999999831e+00 -1.916899999999999993e-01 1.746609999999999996e+00 8.741999999999999771e-02 -1.490529999999999911e+00 4.435880000000000045e+00 4.938189999999999635e+00 -1.402889999999999970e+00 4.438760000000000261e+00 1.001925999999999917e+01 3.310939999999999994e+00 1.845769999999999911e+00 4.962790000000000035e+00 3.235619999999999941e+00 1.740169999999999995e+00 1.237400000000000028e-01 1.652420000000000000e+00 4.575140000000000207e+00 5.007789999999999964e+00 1.619839999999999947e+00 4.339750000000000441e+00 9.937390000000000612e+00
1.715039999999999898e+00 8.942900000000000293e-01 4.383239999999999803e+00 1.767249999999999988e+00 7.805400000000000116e-01 1.175299999999999956e-01 6.508999999999999508e-02 3.554889999999999883e+00 4.482059999999999711e+00 1.209900000000000003e-01 3.569960000000000022e+00 9.306309999999999860e+00 4.868380000000000152e+00 9.381699999999999484e-01 4.270369999999999777e+00 4.685450000000000337e+00 1.087129999999999930e+00 9.324759999999999494e+00 3.077440000000000175e+00 3.671860000000000124e+00 4.382189999999999586e+00 3.219230000000000036e+00 3.830340000000000078e+00 9.338459999999999539e+00 -1.497699999999999865e-01 1.816179999999999906e+00 1.874970000000000026e+00 1.501699999999999979e-01 1.803909999999999902e+00 6.681790000000000340e+00 -1.468639999999999946e+00 4.362650000000000361e+00 2.145230000000000192e+00 -1.421699999999999964e+00 4.596799999999999997e+00 6.834810000000000052e+00 3.074710000000000054e+00 1.897459999999999924e+00 1.945670000000000011e+00 3.284899999999999931e+00 1.843259999999999899e+00 6.625160000000000160e+00 1.484110000000000040e+00 4.354350000000000165e+00 1.790210000000000079e+00 1.608959999999999946e+00 4.526830000000000354e+00 6.899829999999999686e+00 1.642719999999999958e+00 1.452350000000000030e+00 8.883340000000000458e+00 1.424770000000000092e+00 9.189899999999999736e-01 2.351550000000000029e+00 1.739849999999999897e+00 8.723800000000000443e-01 7.108939999999999593e+00 1.952500000000000069e-01 3.448949999999999960e+00 2.593059999999999921e+00 -4.055999999999999883e-02 3.593700000000000117e+00 7.550220000000000375e+00 4.607459999999999667e+00 8.495000000000000329e-01 2.451839999999999797e+00 4.764780000000000015e+00 1.016299999999999981e+00 7.481569999999999609e+00 3.121199999999999974e+00 3.594380000000000130e+00 2.535089999999999844e+00 3.204959999999999809e+00 3.596080000000000165e+00 7.498179999999999623e+00 2.351000000000000034e-01 1.781500000000000083e+00 4.881429999999999936e+00 3.148000000000000104e-02 1.681059999999999999e+00 5.822999999999999704e-02 -1.586160000000000014e+00 4.451450000000000351e+00 4.935670000000000002e+00 -1.351450000000000040e+00 4.325840000000000352e+00 2.698099999999999943e-01 3.270570000000000199e+00 1.751120000000000010e+00 4.819759999999999600e+00 3.280499999999999972e+00 1.941719999999999891e+00 1.001287999999999911e+01 1.704260000000000108e+00 4.646139999999999937e+00 5.096499999999999808e+00 1.578950000000000076e+00 4.500659999999999883e+00 9.857810000000000628e+00
1.466869999999999896e+00 8.048899999999999944e-01 4.067849999999999966e+00 1.668400000000000105e+00 1.018799999999999928e+00 3.833999999999999908e-02 1.058999999999999941e-01 3.685319999999999929e+00 4.154480000000000395e+00 -9.525000000000000133e-02 3.699539999999999829e+00 9.073990000000000222e+00 4.641709999999999781e+00 9.265799999999999592e-01 4.350310000000000343e+00 4.678650000000000198e+00 8.821600000000000552e-01 9.162150000000000460e+00 2.945479999999999876e+00 3.548970000000000180e+00 4.329740000000000144e+00 2.947680000000000078e+00 3.617620000000000058e+00 9.181509999999999394e+00 -4.555000000000000021e-02 1.881620000000000070e+00 1.873410000000000020e+00 8.842999999999999472e-02 1.909319999999999906e+00 6.664799999999999613e+00 -1.610559999999999992e+00 4.434339999999999726e+00 1.818449999999999900e+00 -1.604840000000000044e+00 4.436499999999999666e+00 6.595769999999999911e+00 3.046539999999999804e+00 1.773090000000000055e+00 2.013079999999999981e+00 3.182519999999999794e+00 1.775169999999999915e+00 6.675300000000000011e+00 1.457819999999999894e+00 4.490649999999999586e+00 1.834279999999999911e+00 1.651010000000000089e+00 4.591120000000000090e+00 6.782140000000000057e+00 1.025050000000000017e+00 6.532900000000000373e-01 8.672359999999999403e+00 1.556370000000000031e+00 8.642199999999999882e-01 2.379469999999999974e+00 1.580920000000000103e+00 1.005649999999999933e+00 6.950709999999999944e+00 -9.235999999999999766e-02 3.580929999999999946e+00 2.294099999999999806e+00 5.469999999999999862e-02 3.586699999999999999e+00 7.401209999999999845e+00 4.680369999999999919e+00 8.231699999999999573e-01 2.347500000000000142e+00 4.738629999999999676e+00 9.748599999999999488e-01 7.306490000000000151e+00 3.027870000000000061e+00 3.556290000000000173e+00 2.449819999999999887e+00 3.009250000000000203e+00 3.564779999999999838e+00 7.380200000000000315e+00 2.203000000000000097e-02 1.885270000000000001e+00 4.783159999999999634e+00 -6.599999999999999964e-03 1.848479999999999901e+00 9.671549999999999869e+00 -1.539279999999999982e+00 4.486849999999999561e+00 4.786190000000000389e+00 -1.637320000000000109e+00 4.509979999999999656e+00 9.650499999999999190e+00 3.035699999999999843e+00 1.771419999999999995e+00 4.727680000000000327e+00 3.143629999999999924e+00 1.937629999999999963e+00 2.453100000000000003e-01 1.575779999999999959e+00 4.619119999999999671e+00 4.876339999999999897e+00 1.258180000000000076e+00 4.594529999999999781e+00 1.166000000000000023e-02
1.564729999999999954e+00 9.959500000000000020e-01 4.349210000000000242e+00 1.710930000000000062e+00 9.869099999999999540e-01 4.000000000000000083e-02 1.822999999999999968e-02 3.694719999999999782e+00 4.340729999999999755e+00 2.502000000000000057e-02 3.654529999999999834e+00 9.414260000000000517e+00 4.645150000000000112e+00 9.476900000000000324e-01 4.395220000000000127e+00 4.673029999999999795e+00 9.304599999999999538e-01 9.415630000000000166e+00 3.092849999999999877e+00 3.673090000000000188e+00 4.384739999999999860e+00 3.150209999999999955e+00 3.641869999999999941e+00 9.416520000000000223e+00 -3.543000000000000316e-02 1.863120000000000109e+00 1.900689999999999991e+00 -7.539999999999999827e-03 1.878230000000000066e+00 6.760970000000000368e+00 -1.560259999999999980e+00 4.487119999999999997e+00 1.907030000000000003e+00 -1.542089999999999961e+00 4.525540000000000340e+00 6.777110000000000412e+00 3.179429999999999978e+00 1.882989999999999942e+00 2.022269999999999790e+00 3.092839999999999812e+00 1.823229999999999906e+00 6.842590000000000394e+00 1.569870000000000099e+00 4.527519999999999989e+00 1.827709999999999946e+00 1.577939999999999898e+00 4.546090000000000408e+00 6.894350000000000200e+00 1.096079999999999943e+00 7.319200000000000150e-01 8.942759999999999820e+00 1.584600000000000009e+00 9.688700000000000090e-01 2.405429999999999957e+00 1.528059999999999974e+00 9.475099999999999634e-01 7.180600000000000094e+00 9.289999999999999647e-03 3.637599999999999945e+00 2.443620000000000125e+00 1.805000000000000007e-02 3.642770000000000064e+00 7.443500000000000227e+00 4.698710000000000164e+00 9.316600000000000437e-01 2.508410000000000029e+00 4.694659999999999833e+00 9.904600000000000071e-01 7.501900000000000013e+00 3.110349999999999948e+00 3.664359999999999840e+00 2.514069999999999805e+00 3.151269999999999794e+00 3.648569999999999869e+00 7.479870000000000019e+00 -2.608999999999999861e-02 1.884660000000000002e+00 4.896810000000000329e+00 -8.255999999999999450e-02 1.811530000000000085e+00 1.678999999999999937e-02 -1.569280000000000008e+00 4.547119999999999607e+00 4.898279999999999745e+00 -1.510869999999999935e+00 4.525920000000000165e+00 1.000674000000000063e+01 3.109570000000000167e+00 1.882419999999999982e+00 4.953879999999999839e+00 3.249859999999999971e+00 1.891319999999999890e+00 1.428500000000000048e-01 1.546959999999999891e+00 4.543400000000000105e+00 4.987059999999999604e+00 1.611019999999999897e+00 4.522730000000000139e+00 1.000081999999999915e+01
1.526440000000000019e+00 8.745100000000000096e-01 4.505169999999999675e+00 1.598070000000000102e+00 8.826699999999999546e-01 2.739000000000000115e-02 -4.827000000000000041e-02 3.728340000000000209e+00 4.647789999999999644e+00 -1.751000000000000056e-01 3.566889999999999894e+00 9.777120000000000033e+00 4.664629999999999832e+00 9.132299999999999862e-01 4.580470000000000041e+00 4.462259999999999671e+00 8.415399999999999547e-01 9.734239999999999782e+00 2.925450000000000106e+00 3.772429999999999950e+00 4.454860000000000042e+00 2.989479999999999915e+00 3.596319999999999961e+00 9.626780000000000115e+00 -7.975999999999999757e-02 1.925130000000000008e+00 2.071520000000000028e+00 -5.594999999999999973e-02 1.897960000000000091e+00 6.956220000000000070e+00 -1.573760000000000048e+00 4.699720000000000120e+00 1.951500000000000012e+00 -1.653280000000000083e+00 4.600249999999999950e+00 7.142549999999999955e+00 2.987729999999999997e+00 1.913769999999999971e+00 1.996920000000000028e+00 2.957969999999999988e+00 1.871240000000000014e+00 6.783030000000000115e+00 1.559320000000000039e+00 4.549380000000000202e+00 1.973389999999999977e+00 1.462029999999999941e+00 4.510349999999999859e+00 7.132970000000000255e+00 1.091520000000000046e+00 1.226639999999999953e+00 9.100369999999999848e+00 1.473230000000000040e+00 9.136100000000000332e-01 2.457689999999999930e+00 1.346810000000000063e+00 8.546399999999999553e-01 7.323330000000000339e+00 1.437799999999999911e-01 3.853060000000000151e+00 2.725499999999999812e+00 -1.011599999999999999e-01 3.639269999999999783e+00 7.666109999999999758e+00 4.558399999999999785e+00 9.072500000000000009e-01 2.354379999999999917e+00 4.608080000000000176e+00 8.494300000000000184e-01 7.633189999999999920e+00 3.283970000000000056e+00 3.637020000000000142e+00 2.456440000000000179e+00 2.905019999999999936e+00 3.499420000000000197e+00 7.664780000000000371e+00 -8.040999999999999537e-02 1.944039999999999990e+00 5.060369999999999813e+00 -2.643099999999999894e-01 1.767709999999999892e+00 1.023631999999999920e+01 -1.776319999999999899e+00 4.470559999999999867e+00 4.995169999999999888e+00 -1.524040000000000061e+00 4.468250000000000277e+00 9.990000000000000616e-03 3.016939999999999955e+00 1.784210000000000074e+00 4.953299999999999592e+00 3.203939999999999788e+00 1.972879999999999967e+00 9.191000000000000558e-02 1.487970000000000015e+00 4.741799999999999571e+00 5.249360000000000248e+00 1.470599999999999907e+00 4.445280000000000342e+00 1.027242999999999995e+01
1.689359999999999973e+00 9.675399999999999556e-01 4.228189999999999671e+00 1.830449999999999910e+00 1.038300000000000001e+00 1.134000000000000008e-01 2.695500000000000118e-01 3.684180000000000010e+00 4.323649999999999771e+00 2.689300000000000024e-01 3.931020000000000181e+00 9.205500000000000682e+00 4.676350000000000229e+00 1.037500000000000089e+00 4.332620000000000360e+00 4.890900000000000247e+00 1.342899999999999983e+00 9.409000000000000696e+00 3.222879999999999967e+00 3.793289999999999829e+00 4.286229999999999762e+00 3.597630000000000106e+00 3.858389999999999986e+00 9.364309999999999690e+00 1.042099999999999971e-01 2.081970000000000098e+00 1.908150000000000013e+00 1.727200000000000124e-01 1.897780000000000022e+00 6.650699999999999612e+00 -1.412930000000000019e+00 4.569619999999999571e+00 1.877739999999999965e+00 -1.163939999999999975e+00 4.369449999999999612e+00 6.730310000000000237e+00 3.132080000000000197e+00 2.042520000000000113e+00 2.037650000000000183e+00 3.187749999999999861e+00 1.821509999999999962e+00 6.862529999999999575e+00 1.704309999999999992e+00 4.783509999999999707e+00 1.792399999999999993e+00 2.046600000000000197e+00 4.672119999999999607e+00 6.937319999999999709e+00 1.425059999999999993e+00 9.793300000000000338e-01 8.832869999999999777e+00 1.488969999999999905e+00 9.811499999999999666e-01 2.394359999999999822e+00 1.701149999999999940e+00 8.711600000000000454e-01 7.062140000000000306e+00 1.462900000000000034e-01 3.760170000000000012e+00 2.521549999999999958e+00 4.080400000000000138e-01 3.712549999999999795e+00 7.335799999999999876e+00 4.640220000000000233e+00 1.310880000000000045e+00 2.451869999999999994e+00 4.874590000000000423e+00 1.157550000000000079e+00 7.546960000000000335e+00 3.249109999999999943e+00 3.798909999999999787e+00 2.417930000000000135e+00 3.484830000000000094e+00 3.686220000000000052e+00 7.391610000000000014e+00 1.345200000000000007e-01 1.827360000000000095e+00 4.774759999999999671e+00 5.278699999999999504e-01 2.200210000000000221e+00 9.897520000000000095e+00 -1.306230000000000002e+00 4.557710000000000150e+00 4.740099999999999980e+00 -1.163180000000000103e+00 4.783590000000000231e+00 9.809120000000000061e+00 3.244600000000000151e+00 1.956739999999999924e+00 4.863789999999999836e+00 3.419309999999999850e+00 2.023010000000000197e+00 2.089699999999999891e-01 1.877469999999999972e+00 4.734440000000000204e+00 5.125359999999999694e+00 1.919019999999999948e+00 4.792539999999999800e+00 9.915309999999999846e+00
1.830889999999999906e+00 1.006820000000000048e+00 4.516840000000000188e+00 1.651429999999999954e+00 1.125899999999999901e+00 7.767000000000000293e-02 4.340100000000000069e-01 3.741490000000000204e+00 4.296100000000000030e+00 3.765299999999999758e-01 3.908539999999999903e+00 9.441179999999999239e+00 4.905310000000000059e+00 9.496299999999999741e-01 4.379290000000000127e+00 4.924850000000000172e+00 1.227980000000000071e+00 9.407510000000000261e+00 3.386919999999999931e+00 3.834529999999999994e+00 4.461960000000000370e+00 3.357829999999999870e+00 3.777489999999999792e+00 9.537559999999999150e+00 1.703000000000000069e-01 1.946039999999999992e+00 2.173350000000000115e+00 -2.059000000000000066e-02 2.148439999999999905e+00 6.573809999999999931e+00 -1.350819999999999910e+00 4.586700000000000443e+00 1.777220000000000022e+00 -1.439040000000000097e+00 4.696430000000000327e+00 6.928469999999999906e+00 3.417190000000000172e+00 1.947189999999999976e+00 2.003460000000000019e+00 3.147839999999999971e+00 1.928449999999999998e+00 6.987470000000000070e+00 1.802950000000000053e+00 4.564580000000000304e+00 1.998040000000000038e+00 1.811129999999999907e+00 4.703149999999999942e+00 7.018860000000000099e+00 1.401710000000000012e+00 9.540100000000000247e-01 8.928190000000000737e+00 1.759940000000000060e+00 9.934500000000000552e-01 2.420290000000000052e+00 1.558219999999999938e+00 1.019600000000000062e+00 7.120230000000000281e+00 1.981999999999999873e-01 3.785210000000000186e+00 2.426899999999999835e+00 1.385000000000000120e-01 3.618609999999999882e+00 7.605760000000000076e+00 4.801870000000000083e+00 9.769999999999999796e-01 2.493160000000000043e+00 4.825400000000000134e+00 1.187650000000000095e+00 7.565839999999999677e+00 3.360170000000000101e+00 3.681799999999999962e+00 2.593980000000000175e+00 3.294869999999999965e+00 3.766690000000000094e+00 7.502250000000000085e+00 1.994100000000000039e-01 1.909610000000000030e+00 4.851250000000000284e+00 2.455700000000000105e-01 2.279450000000000198e+00 1.006442999999999977e+01 -1.150230000000000086e+00 4.594739999999999824e+00 4.911599999999999966e+00 -1.664600000000000080e+00 4.647079999999999878e+00 5.020000000000000157e-02 3.276440000000000019e+00 1.996620000000000061e+00 4.935430000000000206e+00 3.260419999999999874e+00 1.873669999999999947e+00 1.393099999999999894e-01 1.853439999999999976e+00 4.646810000000000329e+00 5.009120000000000239e+00 1.892460000000000031e+00 4.871489999999999654e+00 1.008623000000000047e+01
1.514320000000000110e+00 8.939200000000000479e-01 4.353760000000000296e+00 1.511589999999999989e+00 7.534999999999999476e-01 6.657000000000000417e-02 -2.670000000000000064e-03 3.620870000000000033e+00 4.366310000000000358e+00 -7.617999999999999772e-02 3.600270000000000081e+00 9.417260000000000630e+00 4.610750000000000348e+00 9.081599999999999673e-01 4.360439999999999650e+00 4.606080000000000396e+00 9.150000000000000355e-01 9.372780000000000555e+00 3.044369999999999798e+00 3.611619999999999830e+00 4.391759999999999664e+00 3.075769999999999893e+00 3.624699999999999811e+00 9.424770000000000536e+00 -4.497999999999999915e-02 1.856859999999999955e+00 1.947179999999999911e+00 -1.092400000000000038e-01 1.854139999999999899e+00 6.750280000000000058e+00 -1.566130000000000022e+00 4.439820000000000100e+00 2.020129999999999981e+00 -1.584340000000000082e+00 4.512129999999999974e+00 6.840830000000000410e+00 3.087829999999999853e+00 1.868509999999999893e+00 1.916979999999999906e+00 3.121039999999999814e+00 1.858270000000000088e+00 6.778870000000000395e+00 1.514219999999999899e+00 4.557380000000000209e+00 1.859089999999999909e+00 1.508620000000000072e+00 4.508779999999999788e+00 6.909980000000000011e+00 1.488089999999999913e+00 1.415059999999999985e+00 8.915089999999999293e+00 1.530729999999999924e+00 8.943499999999999783e-01 2.428560000000000052e+00 1.496709999999999985e+00 9.507999999999999785e-01 7.177410000000000068e+00 -4.660000000000000080e-03 3.606189999999999785e+00 2.503829999999999778e+00 -6.253999999999999837e-02 3.589069999999999983e+00 7.474149999999999849e+00 4.603080000000000283e+00 9.461800000000000210e-01 2.465580000000000105e+00 4.598860000000000170e+00 9.377999999999999670e-01 7.455879999999999619e+00 3.046279999999999877e+00 3.632410000000000139e+00 2.535460000000000047e+00 3.095680000000000209e+00 3.594329999999999803e+00 7.509199999999999875e+00 -4.959999999999999826e-02 1.813260000000000094e+00 4.898480000000000167e+00 -7.262000000000000399e-02 1.817099999999999937e+00 1.003015000000000079e+01 -1.565239999999999965e+00 4.480500000000000149e+00 4.927819999999999645e+00 -1.592419999999999947e+00 4.370390000000000441e+00 1.552399999999999891e-01 3.070380000000000109e+00 1.813220000000000054e+00 4.916280000000000427e+00 3.078050000000000175e+00 1.837909999999999933e+00 1.003181999999999974e+01 1.542049999999999921e+00 4.553840000000000110e+00 5.004909999999999748e+00 1.507940000000000058e+00 4.520129999999999981e+00 9.985340000000000771e+00