-2.644547018999999750e+02
-2.604850238600000125e+02
-2.659831463799999938e+02
-2.667489756699999930e+02
-2.639906405400000153e+02
-2.622293281299999990e+02
-2.626229570599999761e+02
-2.667749043800000095e+02
-2.615532714199999873e+02
-2.624222521400000119e+02
-2.620909571199999846e+02
-2.668507015100000217e+02
-2.663715797300000077e+02
-2.632337655399999790e+02
-2.642650071400000229e+02
-2.667144889200000080e+02
-2.663715797300000077e+02
-2.623217738399999917e+02
-2.667811017999999876e+02
-2.639336532300000044e+02
-2.631443123000000242e+02
-2.605822549600000002e+02
-2.635525997600000210e+02
-2.653871633800000041e+02
-2.667732801000000222e+02
-2.640414832700000147e+02
-2.667994141600000262e+02
-2.604933268699999758e+02
-2.667358764300000189e+02
-2.639636904199999776e+02
-2.665925872700000241e+02
-2.635914129099999741e+02
-2.644355143399999974e+02
-2.640916604999999890e+02
-2.649514561400000048e+02
-2.667924268799999936e+02
-2.612386534799999822e+02
-2.659831463799999938e+02
-2.642075283799999852e+02
-2.667354146900000273e+02
-2.667864217900000199e+02
-2.663715797300000077e+02
-2.638097132999999985e+02
-2.606547476700000061e+02
-2.612510973700000250e+02
-2.616489622999999938e+02
-2.667297507200000268e+02
-2.667257738000000131e+02
-2.649011727100000257e+02
-2.628772037800000021e+02
