3.935080000000000244e-01 -1.259010000000000129e-01 8.844490000000000407e-01 -1.637109999999999954e-01 6.965699999999999670e-02 1.283681999999999990e+00 -2.456699999999999995e-01 6.961749999999999883e-01 -1.152290000000000036e+00 7.288109999999999866e-01 2.120599999999999916e-02 -5.853429999999999467e-01 -5.194879999999999498e-01 -1.164196000000000009e+00 7.759439999999999671e-01 3.222820000000000129e-01 -2.176359999999999961e-01 -1.782890000000000030e-01 -6.896179999999999533e-01 -2.811049999999999938e-01 -8.829219999999999846e-01 2.003860000000000086e-01 1.407599000000000045e+00 -4.680349999999999788e-01 3.250489999999999768e-01 1.151779000000000108e+00 1.985109999999999930e-01 -4.925610000000000266e-01 -7.550029999999999797e-01 -1.501149999999999984e-01 -5.332400000000000334e-02 -2.503343000000000096e+00 6.549380000000000202e-01 -4.087979999999999947e-01 1.002650999999999959e+00 3.556489999999999929e-01 1.185680999999999985e+00 7.817070000000000407e-01 1.513160000000000061e-01 8.701459999999999750e-01 -4.977119999999999878e-01 7.682719999999999549e-01 3.478020000000000000e-01 -1.686887999999999943e+00 5.767769999999999841e-01 8.562599999999999378e-02 8.425270000000000259e-01 1.112413000000000096e+00 2.220080000000000109e-01 2.443349999999999966e-01 1.026521999999999935e+00 -7.031230000000000535e-01 7.164840000000000098e-01 8.323430000000000550e-01 -7.682759999999999589e-01 -6.294130000000000003e-01 -1.409410999999999969e+00 -1.048961999999999950e+00 6.253030000000000532e-01 -2.904299999999999937e-02 4.230470000000000064e-01 1.270370000000000110e-01 -3.715379999999999794e-01 -4.544540000000000246e-01 -9.552099999999999480e-02 5.020550000000000290e-01 2.509049999999999891e-01 -3.907229999999999870e-01 3.173700000000000132e-02 6.068750000000000533e-01 1.852173999999999987e+00 3.975460000000000105e-01 -4.289109999999999867e-01 6.203610000000000513e-01 -4.451240000000000197e-01 1.218223000000000056e+00 -3.838639999999999830e-01 4.029260000000000064e-01 1.807887999999999940e+00 -4.501589999999999758e-01 1.589800000000000102e-01 -6.719429999999999570e-01 -4.714450000000000029e-01 -7.061180000000000234e-01 -4.914769999999999972e-01 5.913469999999999560e-01 -1.443691000000000058e+00 -1.165429999999999938e-01 2.284470000000000112e-01 -6.102729999999999544e-01 -2.514511999999999858e+00 -6.133319999999999883e-01 -2.875429999999999930e-01 3.300359999999999960e-01 3.507279999999999842e-01 -1.097544999999999993e+00 4.530980000000000008e-01 -1.063276000000000110e+00 -2.967779999999999863e-01
4.338399999999999895e-02 -1.619604000000000044e+00 5.657640000000000446e-01 1.261757999999999935e+00 -6.610660000000000425e-01 -2.060435000000000016e+00 -4.421430000000000082e-01 -5.334710000000000285e-01 1.717038000000000064e+00 -7.648840000000000083e-01 9.153839999999999755e-01 6.688229999999999453e-01 4.721650000000000014e-01 -1.290432000000000023e+00 5.881314999999999849e+00 7.526469999999999549e-01 1.236283000000000021e+00 2.461040999999999812e+00 -6.064969999999999528e-01 -7.922700000000000575e-02 1.312218000000000107e+00 9.501450000000000173e-01 5.373940000000000383e-01 4.485191999999999624e+00 -8.070920000000000316e-01 -1.917470000000000008e-01 -2.240813000000000166e+00 -1.710147000000000084e+00 2.197728000000000126e+00 -6.094669999999999810e-01 2.171215999999999813e+00 -3.704299999999999954e-02 -7.477160000000000473e-01 -1.375426999999999955e+00 9.041000000000000147e-01 2.488992999999999789e+00 9.989270000000000094e-01 1.971044999999999936e+00 -2.484134000000000064e+00 6.707359999999999989e-01 -9.672180000000000222e-01 1.442627000000000104e+00 -1.212096000000000062e+00 4.323310000000000208e-01 2.531025000000000080e+00 1.636223999999999901e+00 -1.871332999999999913e+00 -1.307066000000000061e+00 -2.479139999999999955e-01 -1.742156999999999956e+00 3.354269999999999752e-01 -5.105300000000000116e-02 -1.888249999999999929e-01 -9.874900000000000344e-02 1.518003999999999909e+00 -4.060730000000000173e-01 -4.012290000000000023e-01 -1.522399999999999969e-02 4.760000000000000342e-02 -2.031860000000000055e-01 -1.482958999999999916e+00 5.946499999999999703e-02 -2.008907000000000220e+00 -1.415232000000000046e+00 1.274062999999999946e+00 -3.911585000000000090e+00 1.495637000000000105e+00 1.464761999999999897e+00 -3.902741999999999933e+00 2.871179999999999843e-01 -2.329884999999999984e+00 -1.797150000000000136e-01 -1.184200000000000010e-02 -1.677559999999999885e-01 -1.739079999999999959e+00 -2.229265999999999970e+00 4.999339999999999895e-01 -1.801334999999999908e+00 -9.222639999999999727e-01 -9.235520000000000396e-01 1.709858000000000100e+00 2.153183999999999987e+00 2.223848999999999965e+00 -1.336780999999999997e+00 -1.532842999999999956e+00 -1.064168999999999921e+00 3.326300000000000090e-02 1.447959999999999914e+00 -2.806810000000000138e-01 -6.391879999999999784e-01 -7.000809999999999533e-01 2.579282000000000075e+00 1.315193000000000056e+00 -1.605882000000000032e+00 1.257630000000000137e-01 1.381520999999999999e+00 1.273741000000000012e+00 -2.114745000000000097e+00 -2.657164999999999999e+00
4.395519999999999983e-01 -1.014739999999999948e-01 -7.162699999999999623e-02 4.790599999999999858e-01 5.698700000000000293e-02 4.752009999999999845e-01 3.573020000000000085e-01 -2.432809999999999973e-01 1.469779999999999975e-01 4.139030000000000209e-01 -1.283519999999999939e-01 1.836510000000000087e-01 3.004089999999999816e-01 -6.286600000000000521e-02 1.092280000000000056e-01 4.336650000000000227e-01 -3.153540000000000232e-01 1.263970000000000093e-01 4.256960000000000188e-01 1.948400000000000132e-02 -4.583000000000000268e-03 3.284230000000000205e-01 -7.864500000000000657e-02 8.258300000000000363e-02 -1.902250000000000052e-01 2.399139999999999884e-01 1.469290000000000040e-01 -2.891929999999999779e-01 3.035539999999999905e-01 -5.966400000000000176e-02 -2.886290000000000244e-01 2.862000000000000099e-01 1.875139999999999862e-01 -3.070099999999999912e-02 1.231399999999999995e-01 1.893299999999999844e-02 -2.481220000000000092e-01 3.400409999999999822e-01 1.774050000000000071e-01 -1.660230000000000039e-01 3.152710000000000234e-01 2.188950000000000062e-01 -2.686649999999999872e-01 2.028439999999999965e-01 2.047410000000000063e-01 -1.580759999999999943e-01 2.560239999999999738e-01 -2.362300000000000164e-02 1.787330000000000030e-01 -1.121000000000000052e-01 -3.199919999999999987e-01 5.820800000000000279e-02 -1.458000000000000129e-01 -5.512500000000000039e-02 3.199870000000000214e-01 -3.111599999999999921e-01 -4.118649999999999811e-01 3.243710000000000204e-01 -2.559850000000000181e-01 -1.691290000000000016e-01 2.326399999999999996e-02 -1.689140000000000086e-01 1.678199999999999831e-02 2.390790000000000137e-01 -3.215439999999999965e-01 -9.089800000000000657e-02 6.764799999999999980e-02 -2.141599999999999893e-01 -1.387120000000000020e-01 1.742879999999999985e-01 -2.366240000000000010e-01 4.987799999999999873e-02 5.492799999999999766e-02 -4.007149999999999879e-01 -5.843399999999999983e-02 -3.515980000000000216e-01 1.019919999999999993e-01 -6.955300000000000371e-02 -3.208039999999999781e-01 3.233840000000000048e-01 1.696749999999999925e-01 -5.315490000000000492e-01 1.485940000000000039e-01 -9.661100000000000243e-02 -3.280830000000000135e-01 -3.087799999999999920e-02 -3.594220000000000192e-01 -2.914260000000000184e-01 -8.035499999999999587e-02 4.286800000000000332e-02 -5.619509999999999783e-01 1.805769999999999875e-01 -8.842099999999999960e-02 -2.314499999999999891e-01 1.068749999999999978e-01 2.682100000000000109e-02 -3.620220000000000105e-01 2.033250000000000057e-01 -3.668210000000000082e-01
3.787380000000000191e-01 -5.151000000000000023e-02 3.218759999999999954e-01 7.049419999999999575e-01 4.533420000000000227e-01 -5.646500000000000130e-02 6.220599999999999741e-02 -2.949200000000000085e-02 5.026899999999999702e-01 7.550999999999999379e-02 6.833000000000000185e-02 -1.986040000000000028e-01 -7.813499999999999612e-02 1.085980000000000001e-01 8.370800000000000463e-02 2.903680000000000150e-01 -5.300420000000000131e-01 -3.747079999999999855e-01 2.665580000000000171e-01 -8.114799999999999791e-02 -2.069560000000000011e-01 4.045210000000000194e-01 6.170060000000000544e-01 -4.575600000000000223e-01 -4.095219999999999971e-01 8.048900000000000499e-02 -3.158440000000000136e-01 -2.718809999999999838e-01 -5.496899999999999703e-02 -2.730899999999999994e-02 -3.099999999999999978e-02 -1.475839999999999930e-01 -9.123699999999999866e-02 -3.340330000000000243e-01 6.811970000000000525e-01 -1.159079999999999971e-01 5.788759999999999462e-01 2.003030000000000088e-01 -3.937820000000000209e-01 -5.219979999999999620e-01 -5.275809999999999667e-01 -7.946999999999999204e-03 -1.592000000000000082e-01 1.383400000000000081e-02 2.181879999999999931e-01 1.579200000000000048e-02 2.983480000000000021e-01 2.928839999999999777e-01 -5.255900000000000155e-02 -1.151689999999999936e-01 1.254319999999999879e-01 -5.395820000000000061e-01 -1.619400000000000006e-01 -2.203890000000000016e-01 5.846799999999999914e-02 7.470400000000000651e-02 -5.494609999999999772e-01 3.237160000000000037e-01 7.671100000000000141e-02 8.600099999999999412e-02 5.565229999999999899e-01 -4.437479999999999758e-01 -8.444200000000000317e-02 9.011500000000000066e-02 7.985399999999999443e-02 6.738539999999999530e-01 1.767080000000000040e-01 1.927740000000000009e-01 -1.770499999999999852e-02 -2.475819999999999965e-01 -5.269939999999999625e-01 7.267190000000000039e-01 -4.696800000000000280e-02 -2.271459999999999868e-01 2.919800000000000173e-02 -4.449600000000000083e-02 3.754899999999999904e-02 -8.705499999999999350e-02 4.284339999999999815e-01 2.372390000000000054e-01 3.156880000000000241e-01 -4.235490000000000088e-01 -1.701620000000000077e-01 1.267270000000000063e-01 -1.372919999999999974e-01 -5.087900000000000061e-02 2.793289999999999940e-01 2.712499999999999981e-02 1.264170000000000016e-01 -4.773080000000000100e-01 -9.198469999999999702e-01 -1.709320000000000006e-01 3.091840000000000144e-01 -1.658260000000000012e-01 -1.819300000000000084e-01 -4.081770000000000120e-01 -5.513300000000000145e-02 1.245279999999999998e-01 -6.210000000000000242e-04
1.513778000000000068e+00 7.382800000000000473e-02 -4.044440000000000257e-01 1.767387999999999959e+00 4.256150000000000211e-01 1.972860000000000058e+00 5.259420000000000206e-01 -2.070222999999999924e+00 1.196472999999999898e+00 1.259627999999999970e+00 -1.544739000000000084e+00 -5.158359999999999612e-01 -1.217500000000000006e-02 1.818033999999999928e+00 6.261640000000000539e-01 5.007099999999999745e-02 -1.016520000000000062e-01 2.147602000000000011e+00 -1.323855999999999922e+00 -1.708798999999999957e+00 6.382899999999999685e-02 1.554826000000000041e+00 1.396979999999999889e-01 -6.565769999999999662e-01 -8.847270000000000412e-01 1.017989999999999950e+00 1.106111999999999984e+00 7.696769999999999445e-01 -1.383893000000000040e+00 -2.197818999999999967e+00 8.759439999999999449e-01 -1.287868999999999930e+00 -1.355258000000000074e+00 8.294880000000000031e-01 -7.037250000000000449e-01 -7.377400000000000624e-02 -2.962659999999999738e-01 -2.911239999999999939e-01 -4.352559999999999762e-01 -2.303550000000000042e-01 5.392310000000000159e-01 1.321353999999999917e+00 3.254100000000000048e-02 2.114370000000000138e-01 4.868299999999999711e-02 2.344066999999999901e+00 1.310540999999999956e+00 -2.836270000000000180e-01 -2.194909999999999917e-01 -6.210900000000000309e-01 -5.576400000000000245e-01 -1.348159000000000107e+00 1.027803999999999940e+00 2.483789999999999887e-01 -5.261689999999999978e-01 -9.936260000000000092e-01 -1.228772999999999893e+00 -2.248572999999999933e+00 -1.686026999999999942e+00 1.519299999999999991e-02 -2.924568999999999974e+00 6.952500000000000346e-02 8.148980000000000112e-01 2.181147999999999865e+00 -9.215400000000000258e-01 2.753280000000000172e-01 9.332009999999999472e-01 1.208029999999999937e-01 -9.828109999999999902e-01 1.431214999999999904e+00 1.337639000000000022e+00 -1.678129999999999900e-01 -1.040529000000000037e+00 -4.545620000000000216e-01 -1.433500000000000052e-02 -1.232450000000000045e+00 -8.570999999999999452e-02 3.821129999999999804e-01 1.013074999999999948e+00 6.952099999999999946e-02 -1.357453999999999938e+00 6.443940000000000223e-01 2.350986999999999938e+00 -1.077059999999999962e-01 -2.596305999999999781e+00 1.516480999999999968e+00 1.096554000000000029e+00 -1.678142999999999940e+00 3.620959999999999734e-01 -9.764589999999999659e-01 -2.062438000000000216e+00 3.588359999999999883e-01 -5.148209999999999731e-01 3.033330000000000193e-01 -7.267749999999999488e-01 1.336299999999999988e-01 5.944890000000000452e-01 1.831285999999999969e+00 3.812300000000000133e-01
-5.597649999999999570e-01 -7.705729999999999524e-01 -1.443162999999999974e+00 -1.269514999999999949e+00 -7.025550000000000406e-01 -1.174646000000000079e+00 1.025041000000000091e+00 1.271300000000000097e+00 -1.095895000000000064e+00 -7.636249999999999982e-01 -4.523949999999999916e-01 2.539512999999999909e+00 -1.756903000000000103e+00 -6.881610000000000227e-01 1.062749999999999945e-01 7.390440000000000342e-01 -1.846913999999999945e+00 6.354720000000000368e-01 -3.727550000000000030e-01 -1.717127999999999988e+00 -1.968100000000000127e-01 1.437469000000000108e+00 -1.587587000000000081e+00 1.562407000000000101e+00 1.691912000000000083e+00 -5.500110000000000277e-01 -4.088530000000000220e-01 -7.901219999999999910e-01 4.307989999999999875e-01 2.505577000000000165e+00 1.084845000000000059e+00 1.233598999999999890e+00 -1.850187999999999944e+00 -1.072510000000000074e+00 -4.631383999999999723e+00 -2.224319999999999908e-01 2.660739999999999772e-01 -1.384683000000000108e+00 -1.832880000000000065e-01 1.928010000000000002e-01 4.596459999999999990e-01 2.313117000000000090e+00 2.209785000000000110e+00 2.198963000000000001e+00 -6.273339999999999472e-01 4.861429999999999918e-01 2.025830000000000131e-01 1.896368000000000054e+00 1.427420000000000078e-01 -6.442679999999999518e-01 1.449325999999999892e+00 2.249928000000000150e+00 -8.848169999999999646e-01 8.680339999999999723e-01 -1.863609999999999989e-01 4.847142999999999979e+00 6.032149999999999457e-01 -2.800351000000000035e+00 1.625914000000000081e+00 1.511036999999999964e+00 2.377679000000000098e+00 -5.974260000000000126e-01 -3.474476000000000120e+00 -1.924036999999999997e+00 -7.019180000000000419e-01 -5.206700000000000217e-02 -2.812900000000000122e-02 -9.149080000000000545e-01 -1.830143000000000075e+00 -1.278953000000000007e+00 2.770929999999999782e-01 2.945160000000000000e-01 -8.324829999999999730e-01 4.399339999999999917e-01 -1.490545000000000009e+00 -1.067844000000000015e+00 1.463735000000000008e+00 6.930319999999999814e-01 1.360629999999999895e-01 1.525503999999999971e+00 -2.066107000000000138e+00 3.656317000000000039e+00 3.058819999999999872e-01 -2.166039999999999910e-01 -1.284548000000000023e+00 -2.327210000000000112e-01 -8.306289999999999507e-01 -9.467599999999999627e-02 1.759630999999999945e+00 -2.772299999999999764e-01 -8.717719999999999914e-01 1.403752000000000111e+00 5.593139999999999779e-01 -1.731449000000000016e+00 -2.028655999999999793e+00 -1.009104999999999919e+00 9.899559999999999471e-01 8.906269999999999465e-01 9.123120000000000118e-01
2.802149999999999919e-01 1.381493000000000082e+00 5.435971999999999582e+00 1.035399999999999932e-01 7.659900000000000042e-02 -1.836770000000000069e-01 -1.518988000000000005e+00 -5.612979999999999636e-01 1.131683999999999912e+00 -6.101100000000000273e-02 -1.496704000000000034e+00 3.877288000000000068e+00 -8.658200000000000618e-02 1.201646999999999910e+00 -1.948326000000000002e+00 -2.237881999999999927e+00 2.077100000000000168e+00 1.015716999999999981e+00 1.563039000000000067e+00 6.012539999999999552e-01 -1.183969999999999967e+00 -1.333239999999999981e-01 -1.488350000000000062e+00 1.605378999999999889e+00 2.854490000000000083e-01 -2.016560999999999826e+00 -1.751265000000000072e+00 -9.191939999999999555e-01 7.496770000000000378e-01 -1.175211000000000006e+00 -7.338219999999999743e-01 -1.639699999999999838e-02 -6.266730000000000356e-01 1.602289000000000074e+00 5.321190000000000087e-01 1.302816999999999892e+00 2.193188999999999833e+00 5.232850000000000001e-01 3.179790000000000116e-01 -7.858429999999999582e-01 7.718970000000000553e-01 6.176199999999999746e-02 4.007350000000000079e-01 -7.267670000000000519e-01 -7.856729999999999547e-01 -2.106377999999999862e+00 -9.320040000000000546e-01 -2.610669999999999935e-01 8.417740000000000222e-01 3.410190000000000166e-01 -2.756669999999999954e-01 -1.581415000000000015e+00 -2.127010000000000012e-01 -3.745887999999999884e+00 4.131290000000000240e-01 -2.978073000000000192e+00 7.315479999999999761e-01 7.952270000000000172e-01 1.261492000000000058e+00 2.164044000000000079e+00 -3.331129999999999924e-01 2.107241000000000142e+00 -5.898902999999999786e+00 -1.061172999999999922e+00 1.517155999999999949e+00 2.384421000000000124e+00 -6.949149999999999494e-01 -5.609739999999999727e-01 -6.436619999999999564e-01 -7.890230000000000299e-01 6.414410000000000389e-01 7.769930000000000447e-01 1.514526999999999957e+00 1.679170000000000107e-01 -2.082107999999999848e+00 7.802699999999999914e-02 7.559900000000000508e-01 -7.062610000000000277e-01 3.886830000000000007e-01 9.025560000000000249e-01 1.553487000000000062e+00 1.190000000000000085e-02 -1.696916000000000091e+00 -4.652350000000000096e-01 -3.544840000000000213e-01 -4.460230000000000028e-01 1.331868999999999970e+00 4.898600000000000176e-01 3.274900000000000033e-02 3.111689999999999734e-01 9.046530000000000404e-01 7.887370000000000214e-01 -2.512370000000000214e+00 -7.826389999999999736e-01 -2.183126999999999818e+00 8.548400000000000443e-01 2.313550000000000217e+00 -1.115472999999999937e+00 -6.110109999999999708e-01
-3.967600000000000016e-01 -1.970409999999999939e-01 2.725400000000000045e-02 6.891659999999999453e-01 8.444829999999999837e-01 3.399179999999999979e-01 -2.521680000000000033e-01 -4.898980000000000001e-01 -1.606640000000000013e-01 1.388999999999999957e-01 -4.882960000000000078e-01 -6.763209999999999500e-01 3.759770000000000056e-01 1.584609999999999908e-01 -2.359169999999999878e-01 2.917710000000000026e-01 7.027860000000000218e-01 -7.980500000000000094e-02 -9.763199999999999656e-02 -3.872300000000000048e-02 6.246499999999999969e-02 2.658059999999999867e-01 -6.481379999999999919e-01 -2.490860000000000019e-01 1.226000000000000006e-01 -3.306939999999999880e-01 1.746230000000000004e-01 -6.826959999999999695e-01 3.770189999999999930e-01 3.540900000000000158e-01 -1.496270000000000100e-01 1.920920000000000127e-01 -1.681399999999999909e-02 1.295499999999999985e-01 -9.090949999999999864e-01 6.620900000000000396e-02 4.960000000000000216e-04 -1.611390000000000045e-01 -6.095739999999999492e-01 8.998150000000000315e-01 8.177870000000000417e-01 5.703799999999999981e-01 -1.333340000000000081e-01 -3.125599999999999906e-02 6.506910000000000194e-01 8.126500000000000390e-02 2.980100000000000110e-02 2.804769999999999763e-01 -2.312009999999999899e-01 5.251999999999999724e-03 -4.703359999999999763e-01 -2.168819999999999915e-01 -2.384310000000000040e-01 -8.848999999999999921e-02 -1.914319999999999911e-01 -5.769400000000000223e-02 9.124699999999999478e-02 -4.569000000000000145e-03 3.395779999999999910e-01 3.679879999999999818e-01 -6.093200000000000005e-02 1.364630000000000010e-01 1.265030000000000043e-01 -3.737079999999999846e-01 -3.944000000000000283e-02 3.695899999999999741e-01 -1.469010000000000038e-01 -3.782510000000000039e-01 -4.734209999999999807e-01 -2.790400000000000172e-02 -7.791299999999999615e-02 -2.935999999999999808e-03 -3.079000000000000070e-01 -1.229100000000000054e-01 -1.060740000000000016e-01 1.105460000000000054e-01 5.013999999999999707e-02 -1.447859999999999980e-01 -1.288310000000000011e-01 4.045270000000000254e-01 -4.066500000000000115e-01 3.875750000000000028e-01 9.146999999999999575e-02 -3.209499999999999853e-02 4.887500000000000178e-02 -4.531370000000000120e-01 5.516680000000000472e-01 1.682160000000000044e-01 -1.996660000000000101e-01 -4.095809999999999729e-01 -4.807999999999999774e-03 5.191850000000000076e-01 9.412700000000000233e-02 5.621799999999999714e-02 1.997559999999999891e-01 2.730679999999999774e-01 -3.594890000000000030e-01 -7.080000000000000356e-03 -2.377450000000000119e-01
-1.726042999999999994e+00 -8.765629999999999811e-01 -9.517290000000000472e-01 8.440090000000000092e-01 -1.486021000000000036e+00 -2.622889999999999944e-01 -2.646870000000000056e-01 1.056880999999999959e+00 -1.396281000000000105e+00 1.569301000000000057e+00 1.822390000000000121e-01 -2.099406000000000105e+00 -7.797199999999999687e-01 1.936100000000000043e-01 -1.178217000000000070e+00 4.497630000000000239e-01 -1.080772999999999984e+00 -9.856679999999999886e-01 6.653499999999999970e-01 -1.700701000000000018e+00 -6.365319999999999867e-01 1.035039999999999988e-01 -1.027760999999999925e+00 3.509869999999999934e-01 -1.095091000000000037e+00 3.911259999999999737e-01 -8.804539999999999589e-01 -2.727133999999999947e+00 -2.343459999999999988e-01 -3.005140000000000033e-01 1.032801000000000080e+00 -1.520456999999999947e+00 3.705600000000000005e-01 -1.037797000000000081e+00 -1.139685000000000059e+00 -8.393899999999999695e-01 2.075750000000000206e+00 -6.387460000000000360e-01 -5.329779999999999518e-01 8.995360000000000023e-01 -1.375941000000000081e+00 2.905082999999999860e+00 2.124591000000000118e+00 2.311990000000000212e+00 -2.002908000000000133e+00 -1.923599999999999963e-02 1.957775999999999961e+00 3.857920000000000238e-01 -4.506099999999999689e-02 1.804759999999999975e-01 -7.530240000000000267e-01 -1.250294999999999934e+00 3.270250000000000101e-01 7.497500000000000275e-01 2.164756000000000125e+00 2.213000000000000123e-03 -3.848999999999999991e-03 -2.985682999999999865e+00 -2.494495999999999825e+00 -2.234480000000000077e-01 -9.503859999999999530e-01 -1.956000000000000100e-02 4.563289999999999846e-01 2.037316999999999823e+00 -2.518739999999999868e-01 2.301439999999999930e+00 -5.036869999999999958e-01 6.942949999999999955e-01 -3.332350000000000034e-01 -2.332927000000000195e+00 2.108855999999999842e+00 2.335278999999999883e+00 1.925761000000000056e+00 8.935210000000000097e-01 -2.154800000000000049e-01 2.871400000000000063e-01 -1.753460000000000019e+00 -3.629279999999999728e-01 7.193599999999999994e-01 -8.770699999999999330e-02 1.678595999999999977e+00 1.791287999999999991e+00 2.308177999999999841e+00 1.550375000000000059e+00 -4.935240000000000182e-01 2.725897999999999932e+00 1.518291999999999975e+00 8.504350000000000520e-01 1.106660999999999895e+00 1.745980000000000032e-01 -1.571800000000000086e+00 -7.923729999999999940e-01 -3.766840000000000188e-01 -1.040949999999999931e-01 -8.068629999999999969e-01 -1.246872999999999898e+00 -1.653491999999999962e+00 8.465829999999999744e-01 8.048070000000000501e-01
-2.100360000000000005e-01 6.930190000000000516e-01 1.295619000000000076e+00 2.260860999999999787e+00 -1.871799999999999853e-02 -1.169178000000000051e+00 3.086740000000000039e-01 1.212960000000000010e-01 9.872910000000000297e-01 3.378245999999999860e+00 -9.156809999999999672e-01 2.257089999999999930e-01 1.646033000000000079e+00 7.151830000000000132e-01 -4.828870000000000107e-01 2.293069000000000024e+00 -1.662285000000000013e+00 -1.186901999999999902e+00 1.282637999999999945e+00 -6.129360000000000364e-01 1.154957000000000011e+00 -3.068346000000000018e+00 1.974720000000000031e+00 -1.879308999999999896e+00 -1.512666999999999984e+00 -1.573431999999999942e+00 -5.051989999999999537e-01 3.106840000000000157e-01 -4.531999999999999570e-03 5.287539999999999463e-01 2.694409999999999861e-01 -7.386139999999999928e-01 -4.364100000000000201e-01 -8.315129999999999466e-01 1.760264000000000051e+00 -1.525711000000000039e+00 -1.192085000000000061e+00 2.853040000000000020e-01 -8.147560000000000358e-01 2.215949999999999864e+00 1.692331000000000030e+00 -1.027411999999999992e+00 -9.972999999999999921e-02 -1.083390000000000075e+00 1.091879000000000044e+00 -1.815676999999999985e+00 9.433300000000000018e-02 1.742269999999999930e-01 -2.553969999999999851e-01 5.808820000000000094e-01 8.930010000000000447e-01 1.824766000000000110e+00 1.416716000000000086e+00 -8.446409999999999751e-01 -1.210925999999999947e+00 2.599540000000000184e-01 -1.399110000000000076e-01 1.804885999999999990e+00 1.710088999999999970e+00 -1.115159000000000011e+00 1.704930000000000057e-01 -9.837869999999999671e-01 -2.359500000000000139e-02 2.323946999999999985e+00 -3.567356999999999889e+00 5.351160000000000361e-01 -3.035399999999999904e-02 -6.054000000000000353e-03 -7.530670000000000419e-01 -2.170723999999999876e+00 1.043927999999999967e+00 6.771890000000000409e-01 1.501580000000000137e-01 -1.104212999999999889e+00 1.014402999999999944e+00 -3.464360000000000217e-01 1.725597999999999965e+00 8.528780000000000250e-01 -4.498362000000000194e+00 1.395756999999999914e+00 5.638800000000000479e-01 1.803170000000000051e-01 -1.368470999999999993e+00 1.532739000000000074e+00 6.385729999999999462e-01 -9.360999999999999530e-03 1.928574000000000011e+00 -1.442987000000000020e+00 7.712909999999999489e-01 4.199269999999999947e-01 -1.483487999999999918e+00 -2.202955999999999914e+00 9.129880000000000217e-01 -1.092152000000000012e+00 -1.514632999999999896e+00 -2.354684999999999917e+00 2.021419999999999884e-01 1.125755000000000061e+00 -5.303039999999999976e-01
-1.057943999999999996e+00 -3.172889999999999877e-01 -1.705618999999999996e+00 -1.661239999999999939e-01 1.206819999999999976e-01 -9.459450000000000358e-01 -2.151104999999999823e+00 -6.244399999999999951e-02 4.216799999999999993e-01 -1.395796000000000037e+00 1.579509000000000052e+00 4.717140000000000222e-01 -1.874271999999999938e+00 1.239675000000000082e+00 -1.475710000000000077e-01 1.950739999999999974e-01 3.040039999999999965e-01 1.823266000000000053e+00 1.066688000000000081e+00 -1.813406000000000073e+00 -9.746850000000000236e-01 4.927509999999999946e-01 1.715826999999999991e+00 -5.338640000000000052e-01 -2.982489999999999863e-01 -2.437410000000000132e-01 -2.321924000000000099e+00 6.845320000000000293e-01 -1.914582000000000006e+00 3.961282000000000192e+00 1.942750000000000032e-01 -1.776999999999999968e-01 3.796562000000000214e+00 1.939948000000000006e+00 -2.753525999999999918e+00 -1.721524000000000054e+00 -2.346331000000000166e+00 -4.285539999999999905e-01 -4.335359999999999769e-01 1.380786000000000069e+00 1.056427999999999923e+00 -1.144652999999999921e+00 3.608499999999999902e-02 1.034999000000000002e+00 -2.452043000000000195e+00 -1.261382999999999921e+00 2.419389999999999874e-01 -8.418200000000000127e-01 -7.533050000000000024e-01 -8.190000000000000058e-02 1.399998999999999993e+00 -4.894439999999999902e-01 3.739879999999999871e-01 3.710309999999999997e-01 2.854679999999999995e-01 2.087476999999999805e+00 7.556100000000000316e-02 5.808929999999999927e-01 -1.056629000000000040e+00 9.321899999999999631e-01 1.121607000000000021e+00 4.144752000000000436e+00 -1.433349999999999902e+00 1.697468999999999895e+00 -9.498529999999999474e-01 1.800507999999999997e+00 -1.434001000000000081e+00 -1.746453000000000033e+00 -2.182784999999999975e+00 -3.169489999999999807e-01 9.803349999999999564e-01 -4.798350000000000115e-01 -6.732789999999999608e-01 -4.673669999999999769e-01 1.068823999999999996e+00 1.632200000000000040e-01 7.379200000000000204e-01 -2.025113000000000163e+00 3.028520000000000101e-01 -1.999681000000000042e+00 1.610082000000000013e+00 -7.617100000000000259e-02 -1.487630000000000063e-01 1.879208999999999907e+00 1.197662000000000004e+00 -1.497196999999999889e+00 -3.128458999999999879e+00 2.074104999999999865e+00 -5.201829999999999510e-01 1.572921999999999931e+00 5.833009999999999584e-01 1.365580000000000016e+00 -2.021620000000000084e-01 -2.280149999999999955e-01 7.386850000000000360e-01 1.750661999999999940e+00 5.256520000000000081e-01 -1.542534000000000072e+00 -2.606020000000000003e-01