6.110435220000000278e+00 0.000000000000000000e+00 0.000000000000000000e+00 -3.052292511000000097e+00 5.269836176000000094e+00 0.000000000000000000e+00 2.493633599999999992e-02 7.829518400000000378e-02 1.008468181499999972e+01
6.234588725000000053e+00 0.000000000000000000e+00 0.000000000000000000e+00 -3.148712285000000222e+00 5.392048928000000352e+00 0.000000000000000000e+00 6.731086299999999856e-02 -2.221249409999999924e-01 1.020759473899999925e+01
6.183178177000000275e+00 0.000000000000000000e+00 0.000000000000000000e+00 -3.219333357000000007e+00 5.405364589000000386e+00 0.000000000000000000e+00 2.157815899999999953e-01 -7.346453999999999658e-03 1.023635791300000086e+01
6.251465548999999733e+00 0.000000000000000000e+00 0.000000000000000000e+00 -3.174021086999999852e+00 5.540014730000000220e+00 0.000000000000000000e+00 4.440340699999999891e-02 7.303495399999999915e-02 9.936536124999999942e+00
6.289959257999999664e+00 0.000000000000000000e+00 0.000000000000000000e+00 -3.093872984999999964e+00 5.493588982000000343e+00 0.000000000000000000e+00 -3.170255579999999851e-01 -2.391226419999999964e-01 9.969895755999999665e+00
6.175523963999999921e+00 0.000000000000000000e+00 0.000000000000000000e+00 -3.064541387999999866e+00 5.282610531999999637e+00 0.000000000000000000e+00 1.732813549999999980e-01 -5.445153400000000282e-02 1.003723550800000019e+01
6.319688154999999696e+00 0.000000000000000000e+00 0.000000000000000000e+00 -3.100991057999999967e+00 5.399921872000000178e+00 0.000000000000000000e+00 4.483747999999999900e-02 -1.083277920000000061e-01 1.010367065400000008e+01
6.239077146999999712e+00 0.000000000000000000e+00 0.000000000000000000e+00 -3.235190082999999994e+00 5.385938603999999685e+00 0.000000000000000000e+00 -2.169174339999999923e-01 -6.839328699999999706e-02 9.865759756999999297e+00
6.096710073999999757e+00 0.000000000000000000e+00 0.000000000000000000e+00 -3.013587386000000201e+00 5.510759762000000173e+00 0.000000000000000000e+00 -1.866935969999999889e-01 1.517303550000000112e-01 1.012545890700000051e+01
6.265168116999999981e+00 0.000000000000000000e+00 0.000000000000000000e+00 -3.463747286999999897e+00 5.429095110999999640e+00 0.000000000000000000e+00 6.156953619999999683e-01 -1.162514570000000025e-01 1.008226096699999985e+01
6.063420698999999914e+00 0.000000000000000000e+00 0.000000000000000000e+00 -2.934459765000000164e+00 5.364218222999999952e+00 0.000000000000000000e+00 -2.019191419999999959e-01 2.539351299999999950e-02 9.791902826999999476e+00
6.226930947999999688e+00 0.000000000000000000e+00 0.000000000000000000e+00 -3.205187211000000147e+00 5.343360317000000137e+00 0.000000000000000000e+00 -1.139025419999999955e-01 5.898040100000000174e-02 1.005695728499999930e+01
6.154045093999999771e+00 0.000000000000000000e+00 0.000000000000000000e+00 -3.038078115999999884e+00 5.225696718000000018e+00 0.000000000000000000e+00 -1.303245700000000007e-01 -8.401436499999999363e-02 9.792169391999999917e+00
6.231272782999999649e+00 0.000000000000000000e+00 0.000000000000000000e+00 -3.247704794000000117e+00 5.453450759999999953e+00 0.000000000000000000e+00 -1.445309690000000091e-01 2.414259239999999862e-01 9.348756447999999608e+00
6.290410166000000025e+00 0.000000000000000000e+00 0.000000000000000000e+00 -3.204197618999999886e+00 5.414867777999999632e+00 0.000000000000000000e+00 5.042692979999999769e-01 3.023827899999999985e-02 1.025153250900000046e+01
6.101280984999999824e+00 0.000000000000000000e+00 0.000000000000000000e+00 -2.923495718999999937e+00 5.396888475999999990e+00 0.000000000000000000e+00 -4.326736700000000102e-01 -2.552918499999999938e-02 9.963412293999999392e+00
6.255139178000000300e+00 0.000000000000000000e+00 0.000000000000000000e+00 -3.128841457000000048e+00 5.357461525999999807e+00 0.000000000000000000e+00 -1.202362180000000058e-01 -1.625403400000000054e-02 9.994987568999999183e+00
6.127796670999999584e+00 0.000000000000000000e+00 0.000000000000000000e+00 -3.094681519999999963e+00 5.242190165000000235e+00 0.000000000000000000e+00 -2.421271040000000097e-01 8.264329500000000550e-02 1.003284217400000067e+01
6.095157386000000344e+00 0.000000000000000000e+00 0.000000000000000000e+00 -2.924418886000000217e+00 5.337552698999999734e+00 0.000000000000000000e+00 2.142079849999999897e-01 -1.343081620000000087e-01 9.955347654000000546e+00
6.171715000999999923e+00 0.000000000000000000e+00 0.000000000000000000e+00 -2.911340399000000190e+00 5.325139594999999559e+00 0.000000000000000000e+00 -1.584874649999999940e-01 -1.542862439999999891e-01 1.010339064000000064e+01
6.188719401000000175e+00 0.000000000000000000e+00 0.000000000000000000e+00 -2.946483230000000120e+00 5.395735666000000208e+00 0.000000000000000000e+00 -3.438158579999999742e-01 -1.256556689999999976e-01 1.010435746599999973e+01
6.337989344000000358e+00 0.000000000000000000e+00 0.000000000000000000e+00 -3.144491171999999946e+00 5.392764683000000225e+00 0.000000000000000000e+00 1.331865720000000031e-01 -1.137795479999999942e-01 9.968030926000000846e+00
6.119638881000000197e+00 0.000000000000000000e+00 0.000000000000000000e+00 -3.065582124000000075e+00 5.327449816999999754e+00 0.000000000000000000e+00 -1.315099699999999934e-02 1.300565840000000029e-01 1.006315494100000052e+01
6.123465311000000355e+00 0.000000000000000000e+00 0.000000000000000000e+00 -3.234309870999999781e+00 5.451030977000000277e+00 0.000000000000000000e+00 4.473105270000000133e-01 8.176672299999999949e-02 9.979006936999999411e+00
6.138735894999999942e+00 0.000000000000000000e+00 0.000000000000000000e+00 -3.040835545999999834e+00 5.328753308999999661e+00 0.000000000000000000e+00 -2.654139340000000180e-01 -3.454245999999999792e-03 1.028276813699999970e+01
6.181075206000000044e+00 0.000000000000000000e+00 0.000000000000000000e+00 -3.096478277000000112e+00 5.354165165000000393e+00 0.000000000000000000e+00 -1.858176209999999884e-01 1.662677300000000025e-01 1.033603175900000082e+01
6.265065005000000298e+00 0.000000000000000000e+00 0.000000000000000000e+00 -3.105918793999999927e+00 5.546034728000000413e+00 0.000000000000000000e+00 -4.991464389999999973e-01 -2.826476700000000175e-01 9.905656444999999977e+00
6.212831256000000302e+00 0.000000000000000000e+00 0.000000000000000000e+00 -3.020757648000000017e+00 5.347648039000000075e+00 0.000000000000000000e+00 8.556148600000000604e-02 -3.393581050000000210e-01 9.992686750000000728e+00
6.191632913000000293e+00 0.000000000000000000e+00 0.000000000000000000e+00 -3.274267824999999910e+00 5.361416520999999769e+00 0.000000000000000000e+00 1.693929530000000128e-01 -1.180119339999999989e-01 9.982030695000000620e+00
6.057907184000000278e+00 0.000000000000000000e+00 0.000000000000000000e+00 -2.975544569000000195e+00 5.258565169999999789e+00 0.000000000000000000e+00 2.192630469999999887e-01 1.965926620000000014e-01 9.841120379999999557e+00
6.003274872999999623e+00 0.000000000000000000e+00 0.000000000000000000e+00 -3.128514377000000124e+00 5.431944116999999572e+00 0.000000000000000000e+00 7.451258400000000670e-02 4.854753230000000142e-01 9.615318678999999591e+00
6.186051829000000168e+00 0.000000000000000000e+00 0.000000000000000000e+00 -2.954710415000000090e+00 5.355836256999999989e+00 0.000000000000000000e+00 1.018338290000000007e-01 -8.402798200000000106e-02 1.052066274100000065e+01
6.246886849000000019e+00 0.000000000000000000e+00 0.000000000000000000e+00 -2.949542017000000182e+00 5.454304976000000416e+00 0.000000000000000000e+00 -2.293698379999999926e-01 -4.832439000000000179e-02 1.017687128600000079e+01
6.187126793000000013e+00 0.000000000000000000e+00 0.000000000000000000e+00 -3.206417552000000004e+00 5.484746349999999993e+00 0.000000000000000000e+00 -4.654735970000000167e-01 1.480753089999999883e-01 9.933659582000000654e+00
6.085303402000000084e+00 0.000000000000000000e+00 0.000000000000000000e+00 -3.032228762999999994e+00 5.511112983000000298e+00 0.000000000000000000e+00 -1.432168580000000024e-01 2.362005570000000054e-01 1.024009748199999947e+01
6.172060630999999908e+00 0.000000000000000000e+00 0.000000000000000000e+00 -3.047602249000000096e+00 5.313577633000000411e+00 0.000000000000000000e+00 2.196557500000000107e-01 -4.933028700000000044e-02 1.022869381099999941e+01
6.230964162000000250e+00 0.000000000000000000e+00 0.000000000000000000e+00 -3.077064045999999831e+00 5.487588605000000008e+00 0.000000000000000000e+00 5.250791900000000012e-02 1.744862849999999910e-01 9.992045516999999322e+00
6.394642508999999642e+00 0.000000000000000000e+00 0.000000000000000000e+00 -3.059891272999999856e+00 5.485073839000000007e+00 0.000000000000000000e+00 -2.650450199999999923e-02 -4.230996100000000010e-02 1.013294507099999997e+01
6.225844382000000010e+00 0.000000000000000000e+00 0.000000000000000000e+00 -3.078243295000000046e+00 5.577651219999999910e+00 0.000000000000000000e+00 -3.353559460000000159e-01 2.115432379999999946e-01 1.028178731200000051e+01
6.165731650999999758e+00 0.000000000000000000e+00 0.000000000000000000e+00 -3.103905462000000171e+00 5.295763745000000355e+00 0.000000000000000000e+00 -7.415885799999999417e-02 2.517348100000000102e-02 1.020143453999999927e+01
6.317696339000000272e+00 0.000000000000000000e+00 0.000000000000000000e+00 -3.181381523999999850e+00 5.303776205000000132e+00 0.000000000000000000e+00 2.970826699999999931e-01 -1.468625869999999889e-01 1.007055700199999926e+01
6.335139898000000436e+00 0.000000000000000000e+00 0.000000000000000000e+00 -3.165655777000000004e+00 5.420062700999999983e+00 0.000000000000000000e+00 8.140865699999999539e-02 9.080832000000000487e-03 9.965195031000000370e+00
6.249009497000000302e+00 0.000000000000000000e+00 0.000000000000000000e+00 -3.159382357000000141e+00 5.305259526000000392e+00 0.000000000000000000e+00 -2.010771700000000065e-02 -1.853253360000000072e-01 9.997936234000000866e+00
6.136502770999999967e+00 0.000000000000000000e+00 0.000000000000000000e+00 -3.162244165000000162e+00 5.455066680999999917e+00 0.000000000000000000e+00 2.503585059999999807e-01 3.057496300000000014e-02 1.018017661200000035e+01
6.457246351000000217e+00 0.000000000000000000e+00 0.000000000000000000e+00 -3.246868850999999889e+00 5.384148806999999870e+00 0.000000000000000000e+00 1.586242059999999898e-01 -2.251493109999999909e-01 1.020720838899999983e+01
6.139696774999999995e+00 0.000000000000000000e+00 0.000000000000000000e+00 -3.118176120000000218e+00 5.314411695000000435e+00 0.000000000000000000e+00 -1.247198820000000041e-01 1.055445980000000034e-01 1.003664865100000014e+01
6.172604511000000294e+00 0.000000000000000000e+00 0.000000000000000000e+00 -3.173660282999999804e+00 5.490657405000000324e+00 0.000000000000000000e+00 -4.656047499999999700e-02 3.362170649999999816e-01 1.012621148600000076e+01
6.403284786000000395e+00 0.000000000000000000e+00 0.000000000000000000e+00 -3.259682723000000060e+00 5.297920833000000052e+00 0.000000000000000000e+00 -2.952974549999999865e-01 -2.409092770000000050e-01 1.028518627599999924e+01
5.961692812999999980e+00 0.000000000000000000e+00 0.000000000000000000e+00 -3.071198975000000164e+00 5.468879023000000394e+00 0.000000000000000000e+00 -6.229465399999999792e-02 2.189841309999999985e-01 1.004879355199999935e+01
6.247612818000000345e+00 0.000000000000000000e+00 0.000000000000000000e+00 -3.192779712000000103e+00 5.407300434999999794e+00 0.000000000000000000e+00 -1.507540480000000016e-01 1.019965419999999956e-01 1.036077065699999977e+01
