-1.171585000000000099e+00 -3.582676999999999889e+00 -1.068405999999999967e+00 -2.492040000000000088e-01 -6.065139999999999976e-01 8.053230000000000111e-01 1.370424000000000087e+00 7.320780000000000065e-01 -2.068429999999999991e-01 -5.013379999999999503e-01 8.197680000000000522e-01 2.445959000000000216e+00 -1.101739999999999942e-01 -1.138600999999999974e+00 -3.052840999999999916e+00 -1.283028999999999975e+00 2.611636999999999986e+00 1.335727000000000109e+00 1.587652000000000063e+00 1.947730000000000017e-01 -2.019305999999999823e+00 1.697160000000000057e-01 -1.079571999999999976e+00 2.744940999999999853e+00 1.437950000000000061e-01 1.953224999999999989e+00 -1.667577000000000087e+00 -8.063649999999999984e-01 -3.622781999999999947e+00 -2.810960000000000125e-01 -8.193730000000000180e-01 -3.121764000000000205e+00 -1.625091000000000063e+00 3.091769999999999796e-01 -5.790220000000000367e-01 2.638660999999999923e+00 -3.218199999999999950e-01 -3.968070000000000208e-01 -2.078949000000000158e+00 2.140640000000000043e-01 1.370371000000000006e+00 -1.783838000000000035e+00 1.965240000000000042e-01 -1.344390000000000029e-01 1.766337000000000046e+00 7.260670000000000179e-01 3.437799999999999745e-01 6.671000000000000540e-02 5.145340000000000469e-01 6.854710000000000525e-01 1.847283000000000008e+00 -9.929900000000000393e-01 -3.214097000000000204e+00 8.907990000000000075e-01 -2.214687000000000072e+00 -8.974959999999999605e-01 1.754153000000000073e+00 -2.449498000000000175e+00 3.663044000000000189e+00 6.294469999999999787e-01 -2.830500000000000030e-02 4.643390000000000017e-01 7.140990000000000393e-01 2.316237000000000101e+00 -1.129923999999999928e+00 7.474999999999999700e-02 2.445802000000000032e+00 1.070707000000000075e+00 1.931408999999999931e+00 4.613220000000000098e-01 1.708688999999999902e+00 -6.256380000000000274e-01 4.821489999999999942e-01 -2.394711000000000034e+00 -1.474763999999999964e+00 1.567206000000000099e+00 2.402198999999999973e+00 -9.775359999999999605e-01 -7.378069999999999906e-01 1.151523000000000074e+00 -1.386182000000000025e+00 2.652459999999999818e-01 1.038694999999999924e+00 2.073793000000000220e+00 -1.836990000000000012e-01 6.372710000000000319e-01 -2.348292999999999964e+00 -3.165137999999999785e+00 8.479360000000000230e-01 2.402397999999999811e+00 2.265093999999999941e+00 2.028979999999999950e-01 -3.525430000000000064e+00
-5.485689999999999733e-01 -2.576166999999999874e+00 1.077692000000000094e+00 -2.041900000000000048e+00 9.480969999999999676e-01 3.524935000000000151e+00 1.816780000000000062e+00 -9.615869999999999695e-01 2.832140000000000213e-01 2.181022000000000016e+00 1.566110000000000002e-01 6.305140000000000189e-01 -5.163400000000000212e-01 1.033268000000000075e+00 -2.079991999999999841e+00 1.676779000000000019e+00 -1.302003000000000021e+00 4.659849999999999826e-01 -1.355866000000000016e+00 -4.886170000000000235e-01 -8.027349999999999763e-01 9.579899999999999527e-02 -9.788879999999999804e-01 -2.177000000000000046e+00 -1.561539000000000010e+00 -5.639699999999999713e-01 -2.856719999999999815e-01 -2.067111999999999838e+00 3.488020000000000009e-01 9.382139999999999924e-01 -2.760517999999999805e+00 2.305989999999999984e-01 -1.041949000000000014e+00 1.437993999999999994e+00 1.010243000000000002e+00 -1.636754999999999960e+00 1.986939000000000011e+00 -2.557929999999999815e+00 -7.655330000000000190e-01 -6.496039999999999592e-01 4.324120000000000186e-01 2.962580000000000213e-01 6.812179999999999902e-01 1.779822999999999933e+00 6.842049999999999521e-01 -2.715960000000000041e-01 2.088490000000000069e-01 7.180980000000000141e-01 1.241499999999999965e-01 1.887109999999999899e-01 -1.197154000000000051e+00 -2.743403999999999954e+00 -9.795719999999999983e-01 -1.994224999999999914e+00 3.811479999999999868e-01 1.459325999999999901e+00 2.262500000000000067e-01 -7.339430000000000121e-01 -1.142522000000000038e+00 1.403726000000000029e+00 -4.225450000000000039e-01 -8.297250000000000458e-01 -1.287700000000000067e+00 2.201652000000000164e+00 7.658840000000000092e-01 -5.824390000000000400e-01 4.508590000000000098e-01 3.594840000000000035e+00 1.682196000000000025e+00 1.478720000000000034e+00 -2.155362999999999918e+00 -1.096260999999999930e+00 -6.198810000000000153e-01 -3.674270000000000036e-01 -1.626940999999999971e+00 -6.934899999999999398e-02 8.738240000000000451e-01 1.967182999999999904e+00 4.270531000000000077e+00 1.917645999999999962e+00 1.547412000000000010e+00 1.101542999999999939e+00 2.371894999999999865e+00 5.503050000000000441e-01 -9.927629999999999511e-01 -1.047919000000000045e+00 6.663310000000000066e-01 7.319069999999999743e-01 -1.939818999999999960e+00 -1.026616999999999891e+00 -3.262109999999999843e+00 5.706780000000000186e-01 9.384569999999999856e-01
9.847350000000000270e-01 -1.144298000000000037e+00 -4.515359999999999929e-01 7.221560000000000201e-01 7.316850000000000298e-01 -1.420820000000000138e-01 -1.327790000000000081e-01 -2.633809999999999762e-01 -1.259233000000000047e+00 -2.769099999999999895e-01 8.644150000000000444e-01 3.969880000000000075e-01 -1.041519999999999946e-01 4.635670000000000068e-01 2.001161999999999885e+00 2.374620000000000064e-01 -1.683424999999999949e+00 7.505009999999999737e-01 5.444630000000000303e-01 9.589999999999999636e-01 -7.074570000000000025e-01 1.067665000000000086e+00 1.379159000000000024e+00 -3.587520000000000153e-01 -7.030020000000000158e-01 8.969930000000000403e-01 -9.353540000000000187e-01 7.642160000000000064e-01 -9.468529999999999447e-01 6.632099999999999662e-01 4.372969999999999913e-01 -9.036180000000000323e-01 1.569660000000000055e+00 -1.613509999999999944e-01 -1.584602000000000066e+00 3.041335999999999817e+00 6.545079999999999787e-01 6.474419999999999620e-01 3.978559999999999874e-01 -1.499921999999999978e+00 2.535319999999999796e-01 -5.172919999999999741e-01 -2.906799999999999939e-01 -5.997600000000000153e-02 -6.412609999999999699e-01 -3.401989999999999736e-01 -3.511852999999999891e+00 7.411170000000000258e-01 -4.934000000000000018e-03 -7.243469999999999631e-01 -8.618430000000000257e-01 3.991979999999999973e-01 4.506279999999999730e-01 -3.285489999999999799e-01 7.489329999999999599e-01 3.216609999999999747e-01 -5.785320000000000462e-01 -6.227930000000000410e-01 2.385965000000000114e+00 4.331829999999999847e-01 6.283800000000000496e-02 3.276189999999999936e-01 -8.246400000000000396e-01 -9.832490000000000396e-01 2.448291999999999913e+00 -1.767900000000000027e-01 2.402650000000000063e-01 -3.452660000000000173e-01 -9.496769999999999934e-01 1.364451000000000080e+00 6.075700000000000545e-01 5.097850000000000437e-01 1.177435000000000009e+00 -7.856030000000000513e-01 7.490280000000000271e-01 -2.245807000000000109e+00 3.649839999999999751e-01 -3.207200000000000051e-01 -1.213959000000000010e+00 -1.707019000000000064e+00 9.214949999999999530e-01 7.551480000000000414e-01 -1.111489999999999978e-01 -2.876920000000000033e-01 -7.091020000000000101e-01 1.716100000000000125e-01 -4.808490000000000264e-01 -1.255809999999999982e-01 4.797899999999999943e-01 -1.360845000000000082e+00 -7.463509999999999867e-01 1.747900000000000148e-02 -9.922170000000000156e-01
1.791059999999999874e-01 -3.191700000000000093e-01 -5.356800000000000450e-01 -1.458160000000000012e-01 2.045349999999999946e-01 9.628929999999999989e-01 -9.545900000000000218e-02 1.493320999999999898e+00 9.882140000000000368e-01 6.597899999999999598e-02 -9.443500000000000505e-02 3.460449999999999915e-01 -9.472690000000000277e-01 -1.072570999999999941e+00 -1.084409999999999957e-01 -5.479770000000000474e-01 -6.896529999999999605e-01 -8.366409999999999680e-01 9.532190000000000385e-01 9.693859999999999699e-01 1.001071999999999962e+00 -1.253098999999999963e+00 -5.489079999999999515e-01 -1.070505999999999958e+00 1.826810000000000100e-01 -4.417490000000000028e-01 2.857080000000000175e-01 -3.246310000000000029e-01 -2.614799999999999902e-01 -1.499063000000000034e+00 -8.920609999999999928e-01 1.019573999999999980e+00 -1.048488000000000087e+00 -8.365000000000000213e-01 -1.336630999999999903e+00 2.946159999999999890e-01 1.406509999999999982e-01 3.716360000000000219e-01 3.751417000000000002e+00 3.603839999999999821e-01 6.063070000000000404e-01 3.031499999999999750e-01 8.351750000000000007e-01 8.064249999999999474e-01 -1.151094999999999979e+00 -1.522402000000000033e+00 5.956000000000000183e-01 -9.704220000000000068e-01 9.246699999999999919e-01 1.192717999999999945e+00 -8.004839999999999733e-01 1.127169999999999978e-01 -2.325129999999999975e-01 5.896280000000000410e-01 7.079659999999999842e-01 -2.357079999999999842e+00 -2.017849999999999921e-01 3.723409999999999775e-01 5.755630000000000468e-01 -2.313010000000000066e-01 -4.013720000000000065e-01 1.642397000000000107e+00 -1.611866000000000021e+00 3.413089999999999735e-01 3.188929999999999820e-01 1.866109999999999991e-01 -1.275744999999999907e+00 -1.267560999999999938e+00 -6.122079999999999744e-01 1.395928999999999975e+00 -6.015669999999999629e-01 -2.878539999999999988e-01 1.485330999999999957e+00 2.584389999999999743e-01 9.687040000000000095e-01 4.338469999999999827e-01 -1.406833999999999918e+00 1.393458000000000085e+00 9.385440000000000449e-01 2.947690000000000143e+00 8.821630000000000305e-01 -7.245669999999999611e-01 -3.852030000000000176e-01 -4.882529999999999926e-01 -9.111580000000000235e-01 -1.982010000000000050e+00 -2.439813000000000009e+00 -3.454590000000000161e-01 5.804000000000000131e-02 9.467440000000000300e-01 7.936680000000000401e-01 -6.315900000000000680e-02 9.934770000000000545e-01
-1.461729999999999974e+00 -2.331294999999999895e+00 1.862920000000000131e-01 2.356949999999999878e-01 3.519284999999999997e+00 -1.612270000000000092e-01 -2.082736000000000143e+00 6.216350000000000486e-01 -4.273719999999999741e-01 7.390820000000000167e-01 -2.241603000000000012e+00 -4.508349999999999858e-01 2.262600000000000028e-02 6.878940000000000055e-01 -2.825070000000000081e-01 7.447829999999999728e-01 3.197710000000000274e-01 5.481749999999999678e-01 6.151969999999999938e-01 6.960579999999999545e-01 -3.645995999999999793e+00 2.415903000000000134e+00 -6.608659999999999535e-01 -9.551180000000000225e-01 2.872548999999999797e+00 5.402919999999999945e-01 -2.047851000000000088e+00 5.339230000000000365e-01 3.361729999999999996e-01 -7.457199999999999940e-02 3.683939999999999992e-01 -3.534999999999999948e-03 2.390902000000000083e+00 1.795566999999999913e+00 -1.621013000000000037e+00 -1.789759999999999962e-01 1.289914999999999923e+00 -7.919640000000000013e-01 -1.754073999999999911e+00 8.930949999999999722e-01 -6.600019999999999776e-01 2.151562999999999892e+00 9.596209999999999463e-01 1.290937000000000001e+00 -1.425540000000000029e+00 -3.067413999999999863e+00 1.095909999999999940e+00 1.504347000000000101e+00 -1.502177000000000096e+00 -8.360950000000000326e-01 -4.508369999999999878e-01 -2.217661000000000104e+00 6.232969999999999899e-01 -4.336280000000000134e-01 -1.812405000000000044e+00 6.492790000000000505e-01 4.179840000000000222e-01 7.659589999999999455e-01 -2.507880000000000109e-01 4.634389999999999898e-01 -3.082948000000000022e+00 -1.010674000000000072e+00 4.274640000000000106e-01 6.179959999999999898e-01 6.407249999999999890e-01 9.714299999999999324e-02 9.046659999999999702e-01 1.366028000000000020e+00 -4.375000000000000000e-01 -1.194500000000000076e-02 -4.072300000000000225e-02 1.222442999999999946e+00 -9.806620000000000337e-01 -7.923600000000000088e-02 -7.194399999999999407e-02 -1.404873000000000038e+00 -7.557650000000000201e-01 -2.167438999999999893e+00 -2.970934000000000186e+00 -2.986247000000000096e+00 9.270410000000000039e-01 2.019385000000000208e+00 5.799159999999999870e-01 1.424954000000000054e+00 5.391660000000000341e-01 -3.771720000000000073e-01 7.217580000000000107e-01 3.341787000000000063e+00 4.564570000000000016e-01 1.667697999999999903e+00 -1.079825000000000035e+00 1.223322000000000020e+00 8.142129999999999646e-01
8.864790000000000170e-01 -6.577140000000000208e-01 -7.757460000000000466e-01 -1.258410000000000029e+00 5.114600000000000257e-01 -1.256677999999999962e+00 1.001262000000000096e+00 -1.009139999999999926e+00 -2.104963999999999835e+00 2.097021999999999942e+00 -9.340349999999999486e-01 -1.898174999999999946e+00 7.168900000000000272e-02 1.658296999999999910e+00 1.601019999999999943e-01 -1.296675000000000022e+00 1.254998000000000058e+00 -1.001152000000000042e+00 1.499999999999999944e-01 4.544830000000000259e-01 8.008979999999999988e-01 7.459299999999999820e-01 -2.227847999999999828e+00 -8.108640000000000292e-01 2.826309999999999878e+00 -7.966199999999999670e-02 1.292250000000000065e-01 7.124399999999999622e-01 -1.729778999999999956e+00 -1.267446000000000073e+00 -1.105021999999999949e+00 1.865623999999999949e+00 2.200877999999999890e+00 2.560569000000000095e+00 1.057023000000000046e+00 -6.969610000000000527e-01 -1.104346999999999968e+00 -6.197230000000000238e-01 1.260607000000000033e+00 6.373419999999999641e-01 2.263873999999999942e+00 -3.200882000000000005e+00 -1.729260999999999937e+00 1.323139000000000065e+00 3.857775999999999872e+00 2.223542999999999825e+00 -6.944529999999999870e-01 4.538348000000000049e+00 6.745579999999999909e-01 2.379125999999999852e+00 6.467640000000000056e-01 -4.167174000000000156e+00 2.515600000000000058e-01 2.182643000000000111e+00 -1.265560000000000018e+00 -1.132028000000000034e+00 -1.487654000000000032e+00 9.849529999999999674e-01 1.187509999999999954e-01 1.962485000000000035e+00 -2.182571999999999957e+00 -1.276710999999999929e+00 -1.863759999999999861e-01 7.111819999999999808e-01 -2.392050000000000010e-01 1.500725000000000087e+00 2.567832999999999810e+00 -2.348933999999999855e+00 -6.055660000000000487e-01 -1.554577000000000098e+00 -1.710023000000000071e+00 1.303077999999999959e+00 1.403481999999999896e+00 -9.278549999999999853e-01 9.166830000000000256e-01 -1.190552000000000055e+00 3.112442999999999849e+00 -2.735529999999999906e-01 -1.986127999999999894e+00 1.162055000000000060e+00 -3.196860000000000257e-01 -8.125310000000000032e-01 -4.211043000000000092e+00 5.123710000000000209e-01 2.572200000000000042e-01 1.513684000000000029e+00 5.316220000000000390e-01 5.417330000000000201e-01 4.710130000000000150e-01 -4.135900999999999605e+00 -1.400733000000000006e+00 4.006230000000000069e-01 -2.482599000000000000e+00
-3.749379999999999935e-01 2.929680000000000062e-01 9.183280000000000332e-01 6.545659999999999812e-01 6.150090000000000279e-01 -1.113836000000000048e+00 6.166699999999999959e-02 -1.186050999999999966e+00 -7.304969999999999519e-01 2.725190000000000112e-01 -1.211549999999999988e-01 1.903577999999999992e+00 -1.142299999999999982e-01 4.107560000000000100e-01 3.752820000000000045e-01 -1.568124000000000073e+00 4.555409999999999737e-01 -7.781550000000000411e-01 5.518560000000000132e-01 -1.313920000000000088e-01 1.712132999999999905e+00 -3.636030000000000095e-01 2.447950000000000070e+00 -1.241699000000000108e+00 -4.669260000000000077e-01 4.736650000000000027e-01 1.606583000000000094e+00 -1.735978999999999939e+00 6.948919999999999542e-01 2.332299999999999998e-02 9.557090000000000307e-01 -4.227170000000000094e-01 -8.824279999999999902e-01 -4.407929999999999904e-01 -6.592390000000000194e-01 -2.897839999999999860e-01 2.315810000000000091e-01 -6.162900000000000322e-02 -9.937040000000000317e-01 -1.097196000000000060e+00 -5.904719999999999969e-01 6.897889999999999855e-01 -1.079434000000000005e+00 9.961929999999999952e-01 -1.244830000000000103e+00 -1.401828999999999992e+00 9.359490000000000309e-01 1.749900000000000067e-01 1.317069999999999907e-01 6.217080000000000384e-01 -9.041810000000000125e-01 1.054837999999999942e+00 1.525440000000000129e-01 1.125903000000000098e+00 3.331180000000000252e-01 3.408039999999999958e-01 1.278211999999999904e+00 9.968970000000000331e-01 -1.093974999999999920e+00 -1.692696999999999896e+00 9.102699999999999680e-02 -1.204847000000000001e+00 -9.932050000000000045e-01 1.637640999999999902e+00 -3.513640000000000096e-01 -2.341209999999999958e-01 1.288081999999999949e+00 -8.325420000000000043e-01 1.630959999999999910e-01 5.751910000000000078e-01 -3.800720000000000209e-01 -2.624500000000000097e-02 3.265939999999999954e-01 -1.252798999999999996e+00 2.878410000000000135e-01 2.272000000000000061e-02 8.308299999999999574e-01 8.996790000000000065e-01 -1.186204999999999954e+00 9.491960000000000397e-01 -7.515979999999999883e-01 8.056299999999999573e-02 -1.612896000000000107e+00 -8.447839999999999794e-01 6.788980000000000015e-01 -1.942544999999999966e+00 9.400640000000000107e-01 -1.353213999999999917e+00 1.289366000000000012e+00 5.897010000000000307e-01 1.237295000000000034e+00 3.363220000000000098e-01 3.326400000000000190e-02
-1.688429999999999931e-01 2.189220999999999862e+00 -2.115775000000000183e+00 -9.179169999999999829e-01 -5.213100000000000511e-01 1.173870000000000052e-01 6.518779999999999575e-01 -7.698350000000000470e-01 5.336279999999999912e-01 -6.238500000000000156e-01 3.376460000000000017e-01 4.696130000000000027e-01 1.177319000000000004e+00 -7.071299999999999808e-02 -6.099470000000000169e-01 5.539199999999999680e-01 2.585147999999999779e+00 2.572699999999999987e-01 1.014799000000000007e+00 1.064319999999999988e-01 2.109210000000000029e+00 -7.789000000000000090e-02 -6.864379999999999926e-01 -1.849501000000000062e+00 -3.911120000000000152e-01 -6.487300000000000011e-02 1.244102000000000041e+00 -1.239737000000000089e+00 8.074740000000000251e-01 -1.397210000000000119e-01 8.610860000000000181e-01 1.385599999999999887e-01 4.993989999999999818e-01 -1.124403999999999959e+00 7.241830000000000211e-01 -1.151490000000000014e-01 2.253979999999999873e-01 -2.025882000000000183e+00 -5.882479999999999931e-01 -1.333012000000000086e+00 6.502480000000000482e-01 -4.399779999999999802e-01 -2.811555999999999944e+00 -2.644159999999999844e-01 -3.071429999999999993e-01 7.877060000000000173e-01 -1.303854000000000068e+00 1.583040000000000003e-01 -1.754510999999999932e+00 -1.124608999999999970e+00 1.672869999999999913e-01 1.137658000000000058e+00 -8.263679999999999914e-01 6.710519999999999818e-01 1.080224000000000073e+00 1.303439999999999932e+00 -5.501500000000000140e-02 1.094165000000000054e+00 -7.606969999999999565e-01 -1.178280000000000022e-01 1.561703999999999981e+00 1.279559999999999864e-01 -1.023573000000000066e+00 1.254347000000000101e+00 -1.548229999999999884e-01 3.233230000000000270e-01 -2.696709999999999940e-01 7.858789999999999942e-01 -1.249019000000000101e+00 -1.945109999999999895e-01 1.724053999999999975e+00 3.884600000000000275e-01 -5.871699999999999697e-01 -2.085609999999999964e+00 -3.498729999999999896e-01 -1.674301999999999957e+00 -2.577256999999999909e+00 3.055479999999999863e-01 -8.310450000000000337e-01 1.199977000000000071e+00 7.446580000000000421e-01 -2.167070000000000107e-01 1.807752000000000026e+00 3.946359999999999868e-01 1.582562000000000024e+00 7.516799999999999871e-02 1.489370000000000138e-01 -3.371399999999999952e-01 -8.336609999999999854e-01 -1.021238000000000090e+00 1.570610000000000062e+00 -4.927900000000000058e-01 1.449194000000000093e+00
-1.326586999999999961e+00 -8.989960000000000173e-01 1.045938000000000034e+00 -4.161200000000000315e-02 -6.793069999999999942e-01 2.071010000000000073e-01 1.857012000000000107e+00 3.219969999999999777e-01 -9.198020000000000085e-01 1.549757000000000051e+00 -1.681660000000000099e-01 -6.934109999999999996e-01 -1.605666999999999955e+00 4.302857000000000376e+00 -5.902479999999999949e-01 -1.151108999999999938e+00 -3.502310000000000145e-01 -3.420730000000000159e-01 1.344265000000000043e+00 -3.300409999999999733e-01 8.546080000000000343e-01 -3.640188000000000201e+00 -2.333639999999999881e-01 -2.628572000000000131e+00 7.856849999999999667e-01 1.757503000000000037e+00 -1.567730999999999986e+00 5.843380000000000241e-01 4.134720000000000062e-01 4.577699999999999825e-02 4.739530000000000132e-01 -9.507600000000000495e-01 1.195694000000000035e+00 9.190019999999999856e-01 -1.967073000000000071e+00 2.966076000000000157e+00 -1.192442000000000002e+00 -9.247760000000000424e-01 1.784634999999999971e+00 -9.959630000000000427e-01 5.557050000000000045e-01 -2.480963000000000029e+00 -1.168244000000000060e+00 -5.130200000000000038e-02 3.920161999999999924e+00 5.854890000000000372e-01 -5.133360000000000145e-01 -4.196940000000000115e-01 1.672250000000000014e+00 6.587549999999999795e-01 -6.149630000000000374e-01 6.901859999999999662e-01 2.955211999999999950e+00 5.368439999999999879e-01 4.009759999999999991e-01 -1.236226000000000047e+00 1.776856999999999909e+00 -3.949469999999999925e-01 -1.528683000000000014e+00 -4.983420000000000072e-01 1.082629999999999981e-01 -6.397610000000000241e-01 -6.393919999999999604e-01 -2.567260000000000097e-01 2.251487000000000016e+00 5.041170000000000373e-01 -8.322859999999999703e-01 5.124349999999999739e-01 -4.552350000000000008e-01 -1.845170999999999895e+00 -1.783978999999999981e+00 2.102682999999999858e+00 7.194799999999999807e-02 6.565819999999999990e-01 -7.349750000000000449e-01 4.026449999999999751e-01 1.092597999999999958e+00 -1.363877000000000006e+00 8.199199999999999822e-01 1.958769999999999956e-01 -8.182499999999999496e-02 9.661159999999999748e-01 -4.892250000000000210e-01 4.703919999999999768e-01 1.066087999999999925e+00 9.175750000000000295e-01 -2.799382000000000037e+00 -1.380522999999999945e+00 -4.273286999999999836e+00 1.790847999999999995e+00 1.533568999999999960e+00 4.264600000000000057e-01 -2.371246999999999883e+00
-1.469522999999999913e+00 3.258119999999999905e-01 -8.166930000000000023e-01 -1.345807999999999893e+00 2.087120000000000086e-01 -1.384474999999999900e+00 -9.493599999999999817e-01 -1.059841999999999951e+00 2.341118999999999950e+00 6.343410000000000437e-01 5.733960000000000168e-01 1.665216999999999947e+00 5.214530000000000554e-01 8.314120000000000399e-01 -1.996860000000000079e+00 -1.792205999999999966e+00 -2.423100999999999949e+00 -4.062720000000000220e-01 2.412598000000000020e+00 -5.166530000000000289e-01 2.963391999999999804e+00 1.123107000000000077e+00 -5.437100000000000266e-02 -6.432900000000000285e-01 -1.373771000000000075e+00 2.071909999999999863e-01 5.779189999999999605e-01 1.652528999999999915e+00 2.466178000000000203e+00 -1.827058000000000071e+00 -1.258966000000000030e+00 8.016020000000000367e-01 2.912959999999999994e+00 -1.904384000000000077e+00 -1.013716000000000061e+00 -6.700399999999999689e-01 3.337566999999999950e+00 1.652076000000000100e+00 2.505161999999999889e+00 1.351960000000000051e+00 -8.257970000000000033e-01 -1.399475000000000025e+00 -7.277759999999999785e-01 -1.569407999999999914e+00 1.507984999999999909e+00 1.597698000000000063e+00 1.231657000000000002e+00 -1.221779999999999949e-01 -6.565170000000000172e-01 -1.128810000000000091e+00 1.850618000000000096e+00 -1.964859999999999940e-01 -4.186869999999999759e-01 9.407579999999999831e-01 1.742029999999999967e+00 2.999789999999999957e-01 -1.216396000000000033e+00 2.080279999999999907e-01 -3.849428000000000072e+00 3.285261999999999905e+00 -3.588910000000000156e-01 4.925829999999999931e-01 1.582643000000000022e+00 -1.523549999999999960e+00 -6.224300000000000388e-01 9.760330000000000394e-01 -1.108463999999999894e+00 -1.750895000000000090e+00 -5.825676999999999772e+00 2.673710000000000253e-01 1.865377999999999981e+00 1.127760000000000096e+00 1.692285999999999957e+00 1.529641999999999946e+00 -1.923160999999999898e+00 2.722418999999999922e+00 7.102730000000000432e-01 -2.375279999999999891e-01 -2.187559999999999949e+00 -2.217957000000000178e+00 -1.185500999999999916e+00 -1.031938000000000022e+00 7.347019999999999662e-01 1.844985000000000097e+00 2.600154999999999994e+00 2.846721000000000057e+00 -2.927789999999999893e+00 -3.657586999999999922e+00 7.918899999999999828e-01 -2.434289999999999843e+00 -3.207559999999999856e-01 -1.181090000000000056e-01 -1.065128999999999992e+00
-4.942940000000000111e-01 1.267592999999999970e+00 -1.531066000000000038e+00 -5.055250000000000021e-01 1.553191999999999906e+00 1.572360999999999898e+00 -7.050700000000000023e-02 2.184359999999999913e-01 1.298837000000000019e+00 1.314359999999999973e-01 -6.108379999999999921e-01 4.420270000000000032e-01 -5.323210000000000441e-01 1.597278999999999893e+00 1.591779999999999862e-01 3.552350000000000230e-01 -5.364039999999999919e-01 9.419269999999999587e-01 4.597910000000000053e-01 -2.352615999999999818e+00 -1.354343999999999992e+00 9.369769999999999488e-01 2.558489999999999931e-01 -1.251079999999999970e-01 9.076300000000000479e-01 -1.843556999999999890e+00 4.701489999999999836e-01 -4.446359999999999757e-01 -5.464459999999999873e-01 6.683240000000000292e-01 9.022999999999999771e-03 2.132785000000000153e+00 3.047050000000000036e-01 8.737850000000000339e-01 -5.898360000000000269e-01 -1.199299999999999949e-01 -1.145617000000000107e+00 -2.298679999999999890e-01 1.533582000000000001e+00 7.654940000000000078e-01 7.058299999999999574e-01 9.523249999999999771e-01 1.340837000000000057e+00 4.045560000000000267e-01 1.997480000000000089e-01 2.360306000000000015e+00 -9.020000000000000240e-02 -3.049560000000000048e-01 -1.002486999999999906e+00 -7.112359999999999793e-01 5.275779999999999914e-01 -6.063199999999999840e-02 -1.034660000000000024e-01 6.006960000000000077e-01 -3.448289999999999966e-01 -7.906689999999999552e-01 -1.560594999999999954e+00 -2.104963999999999835e+00 8.554499999999999604e-02 -3.818690000000000140e-01 1.156873999999999958e+00 -3.882280000000000175e-01 4.304640000000000133e-01 -4.454739999999999811e-01 5.413740000000000219e-01 -1.089985999999999899e+00 -1.725981999999999905e+00 8.017060000000000297e-01 -9.907160000000000410e-01 -6.625090000000000146e-01 -5.593160000000000354e-01 3.437839999999999785e-01 6.980579999999999563e-01 4.277029999999999998e-01 -2.335299999999999876e-01 1.220572999999999908e+00 -1.237799000000000094e+00 4.717470000000000274e-01 -1.755568000000000017e+00 -2.322738000000000191e+00 -1.255543000000000076e+00 1.623188000000000075e+00 1.829620000000000135e-01 -3.264210000000000167e-01 1.178239999999999982e-01 2.194929000000000130e+00 -1.892185000000000006e+00 -2.245252999999999943e+00 5.455550000000000122e-01 1.269692000000000043e+00 5.835660000000000291e-01 -2.077999999999999986e-03 -1.020874999999999977e+00
-8.383699999999999486e-02 -1.209073000000000064e+00 -1.260777000000000037e+00 2.083274999999999988e+00 -3.073735000000000106e+00 -1.892530000000000046e-01 -2.187230000000000008e-01 2.579589999999999939e-01 -7.104669999999999597e-01 -1.801093999999999973e+00 -2.355372000000000021e+00 -1.051817000000000002e+00 2.813100000000000045e-01 2.194579999999999864e-01 -2.001488999999999852e+00 3.866160000000000152e-01 -6.548310000000000519e-01 3.657685999999999993e+00 -1.963940000000000130e-01 1.091472999999999915e+00 8.764060000000000183e-01 2.583039999999999781e-01 2.051467000000000152e+00 9.963269999999999627e-01 2.035467000000000137e+00 3.191729999999999845e-01 -9.866709999999999647e-01 -4.974330000000000140e-01 -4.616219999999999768e-01 7.828190000000000426e-01 -2.332880999999999982e+00 4.735210000000000252e-01 1.022600000000000071e-02 -3.288707000000000047e+00 1.932587000000000055e+00 -1.867474999999999996e+00 -9.464000000000000190e-02 -1.219363999999999892e+00 1.967550000000000132e-01 -7.820399999999999574e-02 -1.206839999999999913e+00 1.773079999999999934e-01 1.961824000000000012e+00 -2.641802999999999901e+00 -2.329308000000000156e+00 -1.167545000000000055e+00 -7.313100000000000156e-02 -1.196206000000000103e+00 1.320680000000000076e+00 2.401012000000000146e+00 1.073209999999999997e-01 -1.181978999999999891e+00 1.877585000000000059e+00 2.201020000000000199e+00 8.746700000000000308e-02 -1.047428000000000026e+00 1.801182999999999979e+00 1.233884999999999899e+00 -1.984731000000000023e+00 1.547690000000000010e+00 -1.930438000000000098e+00 1.053304000000000018e+00 1.790165999999999924e+00 3.172360000000000180e-01 4.779793999999999876e+00 -1.759636999999999896e+00 7.606929999999999525e-01 1.017017000000000060e+00 -1.847904999999999909e+00 4.383270999999999695e+00 -3.451436000000000170e+00 2.654476999999999975e+00 7.436220000000000052e-01 1.157404000000000099e+00 -2.568219999999999947e-01 -7.569869999999999655e-01 -2.704568999999999779e+00 -8.384869999999999823e-01 -1.602609999999999868e-01 7.872919999999999918e-01 -1.591445999999999916e+00 4.806599999999999762e-01 2.057996000000000159e+00 2.083840000000000137e-01 -2.220232999999999901e+00 9.637040000000000051e-01 7.006800000000000528e-02 -1.390544999999999920e+00 -4.170940000000000203e-01 1.290989999999999915e-01 1.065592000000000095e+00 6.028399999999999731e-02 6.808269999999999600e-01