6.503253571000000122e+00 0.000000000000000000e+00 0.000000000000000000e+00 1.578421046999999966e+00 8.397811565999999672e+00 0.000000000000000000e+00 -1.308909699999999919e-02 1.170999799999999924e-02 8.369534010000000634e+00
6.190611592999999857e+00 0.000000000000000000e+00 0.000000000000000000e+00 1.625692230000000071e+00 8.065838829000000487e+00 0.000000000000000000e+00 -5.885205200000000192e-02 2.238866000000000120e-02 1.030794305599999916e+01
6.447129761000000236e+00 0.000000000000000000e+00 0.000000000000000000e+00 1.649641157000000025e+00 8.339082508000000615e+00 0.000000000000000000e+00 -1.749296000000000011e-03 5.475266599999999845e-02 8.755169751000000389e+00
6.464410263999999628e+00 0.000000000000000000e+00 0.000000000000000000e+00 1.511441908999999972e+00 8.408002189999999487e+00 0.000000000000000000e+00 1.105352859999999965e-01 1.189844939999999962e-01 9.063725854999999498e+00
6.285042529000000044e+00 0.000000000000000000e+00 0.000000000000000000e+00 1.510051626999999952e+00 8.157402880999999439e+00 0.000000000000000000e+00 -2.282140530000000000e-01 -2.367383889999999935e-01 9.758127927000000312e+00
6.386421924999999611e+00 0.000000000000000000e+00 0.000000000000000000e+00 1.572724730000000015e+00 8.350855754999999547e+00 0.000000000000000000e+00 -4.741033900000000273e-02 6.282598300000000191e-02 8.456121271000000661e+00
6.633495825999999873e+00 0.000000000000000000e+00 0.000000000000000000e+00 1.866529345000000006e+00 8.616954356000000814e+00 0.000000000000000000e+00 -8.136608900000000255e-02 3.272674300000000258e-02 8.800966181999999804e+00
6.212045179999999611e+00 0.000000000000000000e+00 0.000000000000000000e+00 1.625808101000000061e+00 8.162307417999999259e+00 0.000000000000000000e+00 -1.442220720000000067e-01 -9.202882399999999519e-02 1.035281694200000047e+01
6.383439270000000221e+00 0.000000000000000000e+00 0.000000000000000000e+00 1.551498510999999914e+00 8.358117004000000350e+00 0.000000000000000000e+00 2.184742749999999956e-01 1.630296830000000086e-01 8.592724778999999202e+00
6.368487141000000129e+00 0.000000000000000000e+00 0.000000000000000000e+00 1.627054436999999965e+00 8.284406934999999805e+00 0.000000000000000000e+00 -5.152076399999999667e-02 4.127139600000000186e-02 8.324382622999999981e+00
6.269468676999999879e+00 0.000000000000000000e+00 0.000000000000000000e+00 1.529007181999999965e+00 8.102312686999999514e+00 0.000000000000000000e+00 -6.237655599999999967e-02 -3.765025699999999947e-02 1.005129856799999999e+01
6.273026051999999630e+00 0.000000000000000000e+00 0.000000000000000000e+00 1.549054603999999946e+00 8.167744758999999632e+00 0.000000000000000000e+00 -5.830009900000000106e-02 -1.277316779999999874e-01 9.866715529000000373e+00
6.457148025999999597e+00 0.000000000000000000e+00 0.000000000000000000e+00 1.536280910000000111e+00 8.324342760000000396e+00 0.000000000000000000e+00 6.803098800000000057e-02 4.144806000000000011e-03 8.470067767999999830e+00
6.509689715000000376e+00 0.000000000000000000e+00 0.000000000000000000e+00 1.562335228000000020e+00 8.403028972999999624e+00 0.000000000000000000e+00 5.208494600000000002e-02 4.223500100000000118e-02 8.465288723000000459e+00
6.458859471000000241e+00 0.000000000000000000e+00 0.000000000000000000e+00 1.529944863999999960e+00 8.424991334999999637e+00 0.000000000000000000e+00 -2.352436800000000036e-02 -4.071482099999999826e-02 8.314588847999999643e+00
6.310277597999999877e+00 0.000000000000000000e+00 0.000000000000000000e+00 1.510494534000000000e+00 8.227558665000000104e+00 0.000000000000000000e+00 2.939398999999999831e-02 -1.821638899999999950e-02 8.278799205000000327e+00
6.428645779000000005e+00 0.000000000000000000e+00 0.000000000000000000e+00 1.568039339000000032e+00 8.434317607000000550e+00 0.000000000000000000e+00 -6.530172700000000385e-02 3.978034800000000010e-02 8.526781939999999338e+00
6.383855742999999805e+00 0.000000000000000000e+00 0.000000000000000000e+00 1.694521651999999934e+00 8.356809313999999489e+00 0.000000000000000000e+00 -7.457747600000000365e-02 1.119986260000000039e-01 8.465569074999999444e+00
6.465302089999999779e+00 0.000000000000000000e+00 0.000000000000000000e+00 1.543613609999999969e+00 8.293632842999999255e+00 0.000000000000000000e+00 7.959361399999999309e-02 -2.070883199999999993e-02 8.639427552000000787e+00
6.402954192000000155e+00 0.000000000000000000e+00 0.000000000000000000e+00 1.584326670000000048e+00 8.270167302000000831e+00 0.000000000000000000e+00 -7.289514000000000410e-03 5.966704200000000347e-02 8.669491642000000553e+00
6.328254539999999650e+00 0.000000000000000000e+00 0.000000000000000000e+00 1.613166890000000020e+00 8.326086382999999813e+00 0.000000000000000000e+00 -8.458036100000000668e-02 9.566802700000000270e-02 8.473944705999999272e+00
6.453775945000000291e+00 0.000000000000000000e+00 0.000000000000000000e+00 1.574029898000000038e+00 8.422508960000000044e+00 0.000000000000000000e+00 -2.167307699999999893e-02 -2.462446100000000027e-02 8.913742838999999307e+00
6.452068098999999890e+00 0.000000000000000000e+00 0.000000000000000000e+00 1.504459704000000064e+00 8.385580785000000148e+00 0.000000000000000000e+00 1.795982650000000069e-01 1.574940619999999902e-01 9.136413992999999678e+00
6.500671417000000396e+00 0.000000000000000000e+00 0.000000000000000000e+00 1.726083663999999906e+00 8.499714865999999702e+00 0.000000000000000000e+00 -1.106685220000000053e-01 1.083848109999999976e-01 8.576131487999999692e+00
6.392744740999999564e+00 0.000000000000000000e+00 0.000000000000000000e+00 1.451703766000000062e+00 8.332164751000000535e+00 0.000000000000000000e+00 -7.467019099999999687e-02 -1.250919010000000053e-01 9.201225296000000498e+00
6.517570939999999702e+00 0.000000000000000000e+00 0.000000000000000000e+00 1.490228673000000059e+00 8.471958756999999451e+00 0.000000000000000000e+00 1.533112300000000032e-02 -4.272208000000000429e-03 8.544596580000000330e+00
6.488894673999999974e+00 0.000000000000000000e+00 0.000000000000000000e+00 1.692932279999999956e+00 8.417136581999999478e+00 0.000000000000000000e+00 1.915026079999999908e-01 4.339548900000000237e-02 8.396425384000000491e+00
6.378249603999999628e+00 0.000000000000000000e+00 0.000000000000000000e+00 1.571250173999999999e+00 8.217608778000000669e+00 0.000000000000000000e+00 7.378805300000000622e-02 8.783262000000000014e-02 9.725215907999999132e+00
6.540256244000000052e+00 0.000000000000000000e+00 0.000000000000000000e+00 1.741264313000000064e+00 8.562624361999999323e+00 0.000000000000000000e+00 -5.463204499999999714e-02 -7.739513300000000484e-02 8.475662196000000037e+00
6.223901280999999841e+00 0.000000000000000000e+00 0.000000000000000000e+00 1.610636879999999937e+00 8.052842375000000885e+00 0.000000000000000000e+00 -2.640201899999999879e-02 -1.648153999999999982e-03 1.018514779700000084e+01
6.223859395999999933e+00 0.000000000000000000e+00 0.000000000000000000e+00 1.562944885000000061e+00 8.113283266999999910e+00 0.000000000000000000e+00 -6.456351600000000135e-02 -4.648764300000000210e-02 1.008996639000000073e+01
6.555402070000000414e+00 0.000000000000000000e+00 0.000000000000000000e+00 1.641334650999999978e+00 8.486389257000000796e+00 0.000000000000000000e+00 -3.619484800000000169e-02 5.357034900000000321e-02 8.426799568999999934e+00
6.486499560000000386e+00 0.000000000000000000e+00 0.000000000000000000e+00 1.595420183999999963e+00 8.409628762000000535e+00 0.000000000000000000e+00 -1.286084779999999983e-01 2.893335999999999825e-03 8.250029818999999875e+00
6.435397843999999701e+00 0.000000000000000000e+00 0.000000000000000000e+00 1.560854149999999940e+00 8.329941745999999370e+00 0.000000000000000000e+00 1.581469970000000114e-01 1.732277799999999979e-01 8.658594931999999744e+00
6.279251269999999607e+00 0.000000000000000000e+00 0.000000000000000000e+00 1.599477129000000053e+00 8.229224143999999797e+00 0.000000000000000000e+00 7.525651599999999553e-02 6.081005899999999964e-02 9.868327443000000088e+00
6.395149813999999822e+00 0.000000000000000000e+00 0.000000000000000000e+00 1.585078339999999919e+00 8.308925605000000658e+00 0.000000000000000000e+00 1.133978300000000085e-02 6.923529999999999789e-03 8.342824365000000242e+00
6.375561740000000199e+00 0.000000000000000000e+00 0.000000000000000000e+00 1.474715162000000079e+00 8.320545909999999878e+00 0.000000000000000000e+00 8.924546399999999657e-02 1.065555350000000068e-01 9.350741173999999489e+00
6.420405663000000374e+00 0.000000000000000000e+00 0.000000000000000000e+00 1.692268942999999970e+00 8.377463762999999730e+00 0.000000000000000000e+00 -7.874694200000000033e-02 1.150611980000000034e-01 8.361703973999999207e+00
6.213927567999999901e+00 0.000000000000000000e+00 0.000000000000000000e+00 1.588265073000000083e+00 8.060800546999999483e+00 0.000000000000000000e+00 -1.687364309999999923e-01 -9.078223600000000226e-02 1.034894239199999966e+01
6.419843520999999775e+00 0.000000000000000000e+00 0.000000000000000000e+00 1.658141088999999901e+00 8.428602243000000271e+00 0.000000000000000000e+00 -1.085499590000000014e-01 1.223093549999999946e-01 8.577438225999999943e+00
6.627919784000000369e+00 0.000000000000000000e+00 0.000000000000000000e+00 1.827402100999999890e+00 8.622294314999999543e+00 0.000000000000000000e+00 -1.720064199999999863e-02 -3.701157000000000058e-03 8.919948233999999587e+00
6.335489657000000108e+00 0.000000000000000000e+00 0.000000000000000000e+00 1.663673909999999978e+00 8.292333419000000205e+00 0.000000000000000000e+00 -1.048624749999999967e-01 1.057168200000000030e-01 8.329103363999999843e+00
6.467692720999999700e+00 0.000000000000000000e+00 0.000000000000000000e+00 1.604050984999999985e+00 8.392511066999999159e+00 0.000000000000000000e+00 5.185527699999999823e-02 -1.069928760000000006e-01 8.308114613000000759e+00
6.580306956000000262e+00 0.000000000000000000e+00 0.000000000000000000e+00 -5.151224198999999615e+00 8.681543813999999415e+00 0.000000000000000000e+00 -1.036015970000000036e-01 1.248403299999999994e-01 8.374351294000000223e+00
6.484675203000000110e+00 0.000000000000000000e+00 0.000000000000000000e+00 1.533921547000000052e+00 8.421786128000000815e+00 0.000000000000000000e+00 1.991418660000000007e-01 1.596834440000000077e-01 9.028511490999999722e+00
6.474236867000000117e+00 0.000000000000000000e+00 0.000000000000000000e+00 1.670775522000000013e+00 8.415356079000000378e+00 0.000000000000000000e+00 -1.595318940000000074e-01 -8.247608000000000023e-03 8.221984674999999854e+00
6.511775734000000426e+00 0.000000000000000000e+00 0.000000000000000000e+00 1.619643632000000055e+00 8.544437841000000589e+00 0.000000000000000000e+00 -1.089301300000000000e-02 3.380932899999999908e-02 8.398950813000000792e+00
6.361546868999999660e+00 0.000000000000000000e+00 0.000000000000000000e+00 1.513441752000000085e+00 8.257936239999999373e+00 0.000000000000000000e+00 -7.191175399999999440e-02 -9.571567999999999743e-02 9.427097830999999317e+00
6.410435040000000306e+00 0.000000000000000000e+00 0.000000000000000000e+00 1.476467044000000062e+00 8.357143027999999418e+00 0.000000000000000000e+00 1.390627520000000117e-01 1.392346409999999923e-01 9.236881027000000799e+00
6.325288502000000257e+00 0.000000000000000000e+00 0.000000000000000000e+00 1.611453065999999934e+00 8.245718044000000191e+00 0.000000000000000000e+00 5.441783900000000257e-02 -1.499600999999999929e-03 9.652142764000000597e+00
