-6.750340000000000229e-01 -1.268390000000000073e-01 8.956169999999999964e-01 3.063219999999999832e-01 6.408310000000000395e-01 1.243290999999999924e+00 1.052896999999999972e+00 -1.351699999999999950e-02 -6.886330000000000506e-01 6.549120000000000497e-01 -9.809759999999999591e-01 3.536679999999999824e-01 3.669029999999999792e-01 1.312650000000000095e+00 -1.497465999999999964e+00 -4.336320000000000174e-01 4.503299999999999664e-02 9.925300000000000233e-01 6.627469999999999750e-01 1.104835999999999929e+00 1.943290000000000017e-01 -6.615560000000000329e-01 1.454150000000000054e+00 -4.888179999999999747e-01 -8.316540000000000044e-01 -6.856139999999999457e-01 1.005317000000000016e+00 4.496660000000000101e-01 7.392339999999999467e-01 -3.376439999999999997e-01 -9.235950000000000548e-01 5.462470000000000381e-01 -6.036759999999999904e-01 -1.842499999999999971e-01 -2.521289999999999920e-01 1.604780000000000095e-01 2.609345999999999943e+00 1.009840000000000043e-01 1.901770000000000127e-01 -6.667480000000000073e-01 5.999470000000000081e-01 1.619839999999999891e-01 2.190957000000000043e+00 5.414639999999999453e-01 -1.407529999999999892e-01 2.068513999999999964e+00 -6.267319999999999558e-01 3.844029999999999947e-01 2.280602000000000018e+00 -3.531299999999999994e-01 -7.120710000000000095e-01 1.638045999999999891e+00 1.741754999999999942e+00 9.801819999999999977e-01 -2.039150000000000129e-01 -8.107309999999999794e-01 -2.154330999999999996e+00 2.085119000000000167e+00 4.799900000000000000e-02 8.683380000000000543e-01 -1.182739999999999903e+00 1.235274999999999901e+00 1.264413999999999927e+00 -9.997709999999999653e-01 2.210900000000000018e-02 1.146810000000000052e-01 -8.427099999999999869e-02 -1.638821000000000083e+00 -1.737584000000000017e+00 3.758549999999999947e-01 4.342170000000000196e-01 1.063179000000000096e+00 -4.693399999999999656e-02 3.310199999999999809e-01 4.502289999999999903e-01 -1.154468999999999967e+00 1.941049999999999998e-01 1.434342000000000006e+00 -8.271779999999999688e-01 8.282110000000000305e-01 1.066732999999999931e+00 -1.269773999999999958e+00 -1.178736999999999924e+00 9.527700000000000058e-01 -1.634656000000000109e+00 4.675039999999999751e-01 7.594429999999999792e-01 -5.152510000000000145e-01 7.635119999999999685e-01 4.500569999999999848e-01 -2.241353999999999846e+00 1.071509999999999962e+00 7.018099999999999339e-02 -1.899186999999999959e+00 -1.034213999999999967e+00 2.050160000000000038e-01 -8.023369999999999669e-01 -1.998396000000000061e+00 8.484319999999999640e-01 -2.048522000000000176e+00 -1.870276999999999967e+00 -8.799169999999999492e-01 -2.118816999999999950e+00 -1.119042000000000092e+00 -9.944020000000000081e-01 4.033799999999999886e-02 2.828760000000000163e-01 3.052070000000000061e-01 1.427505000000000024e+00 -5.802669999999999773e-01 -6.278160000000000407e-01 -2.334730000000000139e-01 1.502300000000000024e-01 -1.629885999999999946e+00 1.290453999999999990e+00 -4.432220000000000049e-01 -2.279750000000000110e-01 2.279889999999999972e-01 -6.105180000000000051e-01 -6.779500000000000526e-01 -1.160136999999999974e+00 2.504338000000000175e+00 -1.735210000000000086e-01 3.065809999999999924e-01 1.995006999999999975e+00 -7.578380000000000116e-01 8.790299999999999780e-01 -2.814162000000000052e+00 -7.321379999999999555e-01 2.234719999999999818e+00 -1.142166000000000015e+00 -2.458710000000000062e-01 -2.734182000000000112e+00 3.390299999999999980e-01 -1.759735000000000049e+00 1.208935000000000093e+00 -7.045899999999999386e-02 1.159599999999999964e+00 1.176002999999999910e+00 -1.144123999999999919e+00 -5.065730000000000510e-01
-2.292669999999999986e-01 -9.540060000000000207e-01 -1.504729999999999956e-01 5.230479999999999574e-01 1.119652000000000092e+00 -5.241999999999999993e-01 -1.611499999999999877e-01 -5.966460000000000097e-01 -4.082616999999999940e+00 1.700010000000000132e-01 4.022080000000000100e-01 4.120130000000000181e-01 3.235899999999999888e-02 1.480499999999999872e-01 -3.194504999999999928e+00 4.519969999999999821e-01 1.826678999999999942e+00 -1.100220999999999894e+00 -1.840009999999999979e-01 1.087193999999999994e+00 -2.242439999999999989e-01 -1.429400000000000115e-01 8.432220000000000271e-01 2.873981000000000119e+00 -2.086119999999999919e-01 -6.264340000000000463e-01 3.724020000000000108e-01 8.074699999999999933e-02 5.390500000000000291e-01 1.246015000000000095e+00 1.079720999999999931e+00 -2.544300000000000034e-02 -3.228280000000000038e-01 5.493639999999999635e-01 -2.068570999999999938e+00 2.188867999999999814e+00 2.614980000000000082e-01 1.118718000000000101e+00 -3.803369999999999806e-01 7.841909999999999714e-01 -1.286030999999999924e+00 -1.149955000000000060e+00 1.872441999999999940e+00 -1.860476000000000019e+00 1.349177000000000071e+00 2.891572000000000031e+00 1.645139999999999936e-01 -8.208410000000000428e-01 5.884000000000000341e-03 -1.508321000000000023e+00 -1.739079999999999959e+00 -1.939723000000000086e+00 1.847928000000000015e+00 -1.166376000000000079e+00 5.688710000000000155e-01 -3.200959999999999805e+00 1.380713999999999997e+00 6.317129999999999690e-01 1.102409999999999890e+00 -1.773234999999999895e+00 -7.085310000000000219e-01 -6.667269999999999586e-01 -2.850694999999999979e+00 -1.116875999999999980e+00 8.164409999999999723e-01 9.999470000000000303e-01 -1.373248000000000024e+00 2.853840000000000265e-01 -5.403289999999999482e-01 -1.264326000000000061e+00 -2.885826999999999920e+00 2.246901999999999955e+00 -7.602600000000000469e-01 -1.671818000000000026e+00 -1.174792999999999976e+00 1.232739999999999947e-01 2.029539999999999955e-01 1.588114000000000026e+00 -1.712182000000000093e+00 -8.854070000000000551e-01 -9.738250000000000517e-01 -6.330419999999999936e-01 5.331630000000000535e-01 5.207551999999999737e+00 1.053441999999999990e+00 2.647009000000000167e+00 -1.728999999999999981e-01 -3.399460000000000259e-01 -8.133359999999999479e-01 1.101186999999999916e+00 6.056580000000000297e-01 -2.494719999999999993e-01 2.437169999999999892e-01 -1.732313999999999909e+00 3.172982000000000191e+00 6.538119999999999488e-01 6.670589999999999575e-01 1.958420000000000050e+00 -9.861360000000000126e-01 3.207439999999999736e-01 1.553000000000000040e-02 6.388810000000000322e-01 -5.756219999999999670e-01 3.366680000000000117e+00 1.153737999999999930e+00 1.370206999999999953e+00 -1.662752999999999926e+00 -7.693159999999999998e-01 -1.542675000000000018e+00 -1.519914999999999905e+00 8.411769999999999525e-01 7.245049999999999546e-01 1.325482999999999967e+00 -9.241989999999999927e-01 -5.530610000000000248e-01 -1.157399999999999984e+00 -7.357230000000000159e-01 -5.591699999999999449e-01 2.280040000000000122e-01 1.975813999999999959e+00 7.782600000000000628e-02 -1.951519999999999921e+00 1.781573000000000073e+00 2.293399999999999953e-02 1.209084000000000048e+00 -7.221360000000000001e-01 -9.305670000000000330e-01 2.544950000000000268e-01 1.646549999999999958e-01 1.571755000000000013e+00 1.593952000000000035e+00 1.693013000000000101e+00 -1.149429999999999952e+00 1.194312999999999958e+00 -3.817216000000000165e+00 2.024147999999999836e+00 -8.373880000000000212e-01 7.982000000000000206e-01 -6.480139999999999789e-01 -2.575067000000000217e+00 -6.152720000000000411e-01
3.771979999999999777e-01 -5.282219999999999693e-01 -5.990309999999999802e-01 2.668933000000000000e+00 -1.640330000000000121e-01 -3.300111999999999934e+00 -1.264534000000000047e+00 -1.340942999999999996e+00 6.570380000000000109e-01 -1.063217999999999996e+00 -1.555722999999999967e+00 5.653789999999999649e-01 -1.818640999999999952e+00 -2.016786999999999885e+00 2.368882999999999850e+00 1.548893000000000075e+00 -1.899729000000000001e+00 2.103181000000000189e+00 9.213179999999999703e-01 2.087581999999999827e+00 -5.964899999999999647e-01 2.591194999999999915e+00 -1.875890999999999975e+00 2.261595999999999940e+00 -8.131410000000000027e-01 -1.136481999999999992e+00 1.678919999999999968e+00 -7.242870000000000141e-01 1.393337000000000048e+00 -4.716139999999999777e-01 2.071521000000000168e+00 -1.357803000000000093e+00 -1.151100000000000040e-01 -1.350794000000000050e+00 3.327060000000000017e-01 8.124419999999999975e-01 -6.805459999999999843e-01 -1.271190000000000098e-01 -2.550910000000000122e-01 -2.724622000000000099e+00 2.038310000000000066e+00 1.019616000000000078e+00 1.474329999999999918e+00 2.488150000000000084e+00 -1.061522999999999994e+00 4.779570000000000207e-01 -1.808097000000000065e+00 -6.260000000000000009e-01 -1.547651000000000110e+00 -1.890107999999999899e+00 -6.023889999999999523e-01 -2.898436999999999930e+00 3.036179999999999990e-01 -9.023520000000000429e-01 -2.157774999999999999e+00 5.438589999999999813e-01 -6.603290000000000548e-01 9.483049999999999535e-01 1.803266000000000036e+00 -1.122565999999999953e+00 2.020919999999999939e-01 -4.674993999999999872e+00 5.572089999999999543e-01 2.299364000000000186e+00 -4.410917999999999672e+00 -1.359377000000000058e+00 2.571804999999999897e+00 2.158930000000000016e-01 -3.000456999999999930e+00 4.739809999999999857e-01 -3.891767999999999894e+00 4.497760000000000091e-01 1.140277999999999903e+00 -2.413929999999999965e-01 2.535795999999999939e+00 1.191508000000000012e+00 -1.617587000000000108e+00 1.810809999999999920e-01 -7.434359999999999857e-01 2.975579999999999892e-01 -2.812600000000000169e-02 -1.392627000000000059e+00 -1.566823999999999995e+00 -7.979600000000000581e-02 -7.185639999999999805e-01 6.662299999999999889e-01 1.289916999999999980e+00 1.756115000000000093e+00 1.890632000000000090e+00 -5.263670000000000293e-01 6.237479999999999691e-01 2.011042000000000218e+00 -2.031129999999999880e-01 1.823720000000000063e-01 3.274087000000000192e+00 -2.422670000000000101e-01 -1.891664000000000012e+00 -6.458249999999999824e-01 -4.108479999999999910e-01 5.368060000000000054e-01 -2.429600000000000162e-02 3.111030000000000184e-01 6.135899999999999688e-02 4.303923000000000165e+00 -9.204000000000000375e-03 1.703590000000000104e-01 5.045569999999999666e+00 9.904650000000000398e-01 -1.654223999999999917e+00 1.419248000000000065e+00 1.414970000000000061e+00 -2.313766000000000211e+00 -1.032218999999999998e+00 -1.010067000000000048e+00 -2.907339999999999924e-01 -5.150789999999999536e-01 -1.164854000000000056e+00 7.066759999999999708e-01 5.144370000000000331e-01 -4.772980000000000000e-01 -1.017365000000000075e+00 1.011540000000000106e+00 -7.662799999999999612e-01 -3.185890000000000111e-01 2.791199999999999931e-02 6.450329999999999675e-01 -1.565396999999999927e+00 1.495071999999999957e+00 2.482310000000000072e-01 1.082141000000000020e+00 1.884210000000000051e-01 -4.037319999999999798e-01 7.589339999999999975e-01 1.058280000000000054e-01 -1.267929999999999890e-01 1.783987999999999907e+00 2.254093999999999820e+00 1.258002999999999982e+00 3.288369999999999904e-01 -1.390476000000000045e+00 -1.227452999999999905e+00
1.855410000000000115e-01 7.936569999999999458e-01 -5.024030000000000440e-01 1.373194999999999943e+00 -1.430657000000000068e+00 2.046500000000000055e-02 8.005849999999999911e-01 5.485370000000000523e-01 5.508979999999999988e-01 -9.668109999999999760e-01 -1.287676999999999961e+00 7.796039999999999637e-01 -1.701978999999999909e+00 -8.954520000000000257e-01 -5.123360000000000136e-01 -1.780324999999999935e+00 -1.952781000000000100e+00 -3.663600000000000190e-01 -2.417150000000000132e-01 7.369670000000000387e-01 -2.343299999999999897e-02 -2.327202000000000215e+00 -4.236679999999999890e-01 4.760510000000000019e-01 3.105859999999999732e-01 -5.939510000000000067e-01 8.460250000000000270e-01 -4.559730000000000172e-01 1.948787000000000047e+00 1.070673999999999904e+00 -6.267139999999999933e-01 5.711950000000000083e-01 -6.042100000000000248e-01 6.010670000000000179e-01 -9.579509999999999970e-01 7.513400000000000079e-01 2.631111999999999895e+00 -8.564340000000000286e-01 -1.506100999999999912e+00 5.637500000000000150e-02 2.702479999999999882e-01 3.925989999999999758e-01 -3.298417000000000154e+00 9.575470000000000370e-01 -9.873429999999999707e-01 -3.081949999999999967e-01 -8.829740000000000366e-01 1.444070000000000076e-01 -2.437979999999999869e-01 -1.578567999999999971e+00 -1.320890000000000120e-01 -6.274210000000000065e-01 -1.622244000000000019e+00 -1.052300000000000013e+00 -2.745850000000000235e-01 -1.355731999999999937e+00 -1.250710999999999906e+00 1.486305999999999905e+00 1.273916999999999966e+00 -6.538779999999999593e-01 -1.606444999999999901e+00 -1.451020000000000088e-01 -1.258567999999999909e+00 -5.702610000000000179e-01 -5.714099999999999735e-02 1.324605999999999950e+00 4.924540000000000028e-01 7.027290000000000481e-01 -1.877010000000000067e-01 -1.404990000000000128e-01 -1.773171999999999970e+00 -7.511400000000000021e-02 7.792399999999999327e-02 1.823237999999999914e+00 2.244389999999999996e-01 -1.354152999999999940e+00 -4.400410000000000155e-01 -3.027850000000000263e-01 2.401037999999999784e+00 3.309449999999999892e-01 1.711770999999999932e+00 8.360049999999999981e-01 -2.924300000000000233e-01 5.666330000000000533e-01 -2.859209999999999807e-01 8.370090000000000030e-01 1.030723999999999974e+00 1.578759999999999886e-01 2.230039000000000105e+00 -2.747319999999999762e-01 -1.511894999999999989e+00 -3.456699999999999773e-01 5.958449999999999580e-01 -1.208499999999999991e-01 -8.455430000000000446e-01 1.302515000000000089e+00 9.529389999999999805e-01 -1.736229000000000022e+00 9.083799999999999653e-01 -9.345459999999999878e-01 7.252469999999999750e-01 -7.708779999999999522e-01 -6.200560000000000516e-01 1.032623000000000069e+00 2.781080000000000219e-01 1.830060000000000020e-01 6.733209999999999473e-01 -1.518213000000000035e+00 1.284709000000000101e+00 -1.378120000000000012e+00 -1.461589999999999945e+00 -1.005875999999999992e+00 2.837758000000000003e+00 2.930999999999999925e-02 1.272591000000000028e+00 5.575510000000000188e-01 3.232760000000000078e-01 -1.024292999999999898e+00 7.180940000000000101e-01 5.070850000000000080e-01 3.669319999999999804e-01 5.747259999999999591e-01 -5.255330000000000279e-01 3.174699999999999744e-01 5.377819999999999823e-01 5.252199999999999924e-02 3.532500000000000084e-01 -1.196520999999999946e+00 -6.137740000000000418e-01 1.784940000000000138e-01 -2.431919999999999915e-01 -5.374480000000000368e-01 5.524419999999999886e-01 5.475839999999999597e-01 5.679769999999999541e-01 1.747025000000000050e+00 -4.360959999999999837e-01 1.875239999999999962e-01 3.409008000000000038e+00 1.497851000000000043e+00 4.747210000000000041e-01
1.593523999999999941e+00 -1.812075000000000102e+00 9.881689999999999641e-01 -8.647059999999999746e-01 6.480989999999999807e-01 1.278966999999999965e+00 1.202039999999999997e+00 1.566761999999999988e+00 6.221790000000000376e-01 -3.131699999999999762e-02 -2.049932000000000087e+00 9.469999999999999252e-03 -7.476150000000000295e-01 8.109600000000000142e-02 2.598159999999999914e-01 -1.103963000000000028e+00 4.736270000000000202e-01 1.049234000000000000e+00 1.135153999999999996e+00 -6.343290000000000317e-01 1.159364000000000061e+00 1.591746000000000105e+00 1.446183999999999914e+00 1.479424999999999990e+00 -1.186412000000000022e+00 3.029898000000000202e+00 2.158752999999999922e+00 6.203429999999999778e-01 -1.915989999999999915e-01 1.655186000000000046e+00 3.837189999999999768e-01 -1.032577000000000078e+00 -2.157199999999999951e-01 2.127734999999999932e+00 -1.824479999999999991e-01 -1.003570000000000018e-01 2.876210000000000155e-01 1.353034999999999988e+00 -2.752130999999999883e+00 8.080530000000000213e-01 -7.135500000000000176e-02 -1.891509000000000107e+00 -2.371729999999999894e+00 2.569256999999999902e+00 6.218540000000000179e-01 -1.373636000000000079e+00 -1.668209999999999971e-01 -1.249568000000000012e+00 -3.638049999999999895e-01 -1.205046999999999979e+00 -8.853900000000000103e-01 8.788789999999999658e-01 1.014021000000000061e+00 -1.065209999999999990e+00 -3.038089999999999957e-01 -2.068029999999999813e+00 6.549730000000000274e-01 2.051862999999999992e+00 1.344702000000000064e+00 -3.119905000000000150e+00 -9.970590000000000286e-01 -2.902299999999999880e-01 -1.785276000000000085e+00 -2.147911000000000126e+00 1.921076999999999924e+00 2.064007000000000147e+00 -1.109879999999999978e+00 -2.468161999999999967e+00 8.908549999999999525e-01 -1.136103000000000085e+00 -2.339779999999999915e-01 9.896099999999999897e-01 1.833266000000000062e+00 9.985990000000000144e-01 -1.573350999999999944e+00 -1.573258000000000045e+00 -1.532566000000000095e+00 -3.116019999999999901e-01 3.123984000000000094e+00 -1.137342999999999993e+00 8.722830000000000306e-01 1.517044999999999977e+00 -1.473815000000000097e+00 -6.467319999999999736e-01 -6.714179999999999593e-01 -1.466250999999999971e+00 -7.732919999999999794e-01 -1.655629999999999880e-01 -3.333530000000000104e-01 -7.369219999999999660e-01 -3.355250000000000177e-01 2.514120999999999828e+00 -1.849645999999999901e+00 1.174859999999999932e-01 -2.809590000000000143e-01 1.313395000000000090e+00 3.492900000000000171e-02 1.737481999999999971e+00 -1.181529999999999941e-01 2.145623000000000058e+00 -2.971139999999999892e-01 -4.374230000000000063e-01 9.101420000000000066e-01 -8.558310000000000084e-01 1.148835000000000051e+00 6.870979999999999865e-01 -6.594160000000000021e-01 -1.284890000000000088e+00 -1.906058000000000030e+00 8.599940000000000362e-01 2.425421000000000049e+00 -2.760999999999999999e-03 2.054020000000000012e-01 1.099250999999999978e+00 -1.479076999999999975e+00 3.601929999999999854e-01 -7.240039999999999809e-01 5.313240000000000185e-01 2.143915999999999933e+00 -6.802169999999999606e-01 8.464739999999999487e-01 -1.156357000000000079e+00 3.962829999999999964e-01 -2.859751000000000154e+00 -1.462244000000000099e+00 -3.656114000000000086e+00 2.824269999999999836e-01 -6.747899999999999732e-02 1.864093999999999918e+00 -1.133839999999999987e-01 -1.003929000000000071e+00 2.225077999999999889e+00 -1.198688999999999893e+00 -2.928700000000000192e-01 -2.012763000000000080e+00 2.120589999999999975e-01 -3.240069999999999895e-01 2.505548000000000108e+00 -8.791069999999999718e-01 4.826540000000000274e-01 -1.861871000000000054e+00
-1.726728999999999958e+00 -4.021546999999999983e+00 1.961870000000000003e-01 2.060493000000000130e+00 1.098931000000000102e+00 -3.070459000000000049e+00 9.139899999999999691e-01 -1.823829999999999896e-01 -4.738669999999999827e-01 1.606435000000000057e+00 1.319801000000000002e+00 -3.888440000000000230e-01 7.114859999999999518e-01 2.358750000000000013e-01 3.444760000000000044e-01 8.465999999999999914e-02 4.128465000000000273e+00 -4.941240000000000077e-01 1.145828000000000069e+00 -1.219946999999999893e+00 6.239449999999999719e-01 -1.508048000000000055e+00 -9.100430000000000463e-01 8.252789999999999848e-01 -1.500823000000000018e+00 -1.914609999999999923e-01 -4.836539999999999728e-01 1.440846999999999989e+00 9.066450000000000342e-01 -1.151966999999999963e+00 -1.278359999999999941e+00 2.126316000000000095e+00 1.843323000000000045e+00 -1.254027999999999921e+00 -5.555809999999999915e-01 2.910034000000000010e+00 3.051880000000000148e-01 1.421408999999999923e+00 -1.461551999999999962e+00 1.031119999999999953e-01 -8.028149999999999453e-01 1.818516999999999939e+00 -1.451837999999999962e+00 -1.150390999999999941e+00 2.327163000000000093e+00 -2.523991999999999791e+00 1.537700999999999985e+00 -3.274009999999999976e-01 2.390661000000000147e+00 -1.417993000000000059e+00 3.199130000000000029e-01 2.419452999999999854e+00 -3.206729999999999858e-01 -1.426490000000000036e+00 1.488523000000000041e+00 -1.042337999999999987e+00 -1.164835999999999983e+00 -9.520800000000000374e-01 6.199909999999999588e-01 -6.313290000000000290e-01 1.860980000000000079e+00 8.942240000000000189e-01 1.419248000000000065e+00 -1.213057000000000052e+00 -1.403373999999999899e+00 1.862529000000000101e+00 2.977323000000000164e+00 1.617931999999999926e+00 -1.551204000000000027e+00 1.340168999999999944e+00 -1.737357000000000040e+00 8.934579999999999744e-01 2.705414999999999903e+00 2.606704000000000132e+00 1.252959999999999907e-01 4.539569999999999994e-01 3.521208000000000116e+00 -7.361170000000000213e-01 -2.835837999999999859e+00 -3.941959999999999908e-01 8.152519999999999767e-01 2.415875999999999912e+00 -1.325620000000000132e-01 -6.563909999999999467e-01 -6.416049999999999809e-01 -2.808015999999999845e+00 1.346341000000000010e+00 -1.527751000000000081e+00 -9.006699999999999706e-01 -1.080608000000000013e+00 -1.974849999999999994e+00 9.439680000000000293e-01 4.825860000000000150e-01 -7.874120000000000008e-01 1.879771000000000081e+00 1.188004999999999978e+00 4.361490000000000089e-01 2.328767000000000031e+00 -5.490909999999999958e-01 8.074900000000000133e-02 -9.464320000000000510e-01 -5.297359999999999847e-01 -1.312804000000000082e+00 -2.948443999999999843e+00 -9.942499999999999671e-01 -1.277444000000000024e+00 -1.689727999999999897e+00 3.397149999999999892e-01 -5.099770000000000136e-01 2.973122000000000043e+00 4.219060000000000032e-01 -1.232069999999999999e+00 1.055019999999999986e-01 -1.272880000000000122e-01 7.954309999999999992e-01 -3.598292999999999964e+00 -2.120390000000000053e-01 3.333244999999999791e+00 1.999670000000000059e-01 2.601160000000000139e-01 -1.300707000000000058e+00 1.911309999999999953e-01 -1.053700000000000053e-01 -1.469370000000000065e+00 1.915939999999999865e-01 3.497800000000000215e-02 -3.485190000000000232e-01 5.744679999999999787e-01 -3.594229999999999925e-01 1.032338999999999896e+00 -4.609280000000000044e-01 3.029600000000000001e-02 -1.385693000000000064e+00 -6.573980000000000379e-01 1.163519999999999971e-01 -1.771271999999999958e+00 2.640400000000000039e-02 -2.077046999999999866e+00 -3.180410000000000181e-01 -1.957324999999999982e+00 -4.918279999999999874e-01
-1.523919999999999941e+00 -4.429879999999999929e-01 2.109000000000000111e-02 1.279109999999999969e+00 2.056999999999999940e-01 -1.505710000000000104e-01 -1.245560000000000000e+00 1.103879999999999972e+00 -2.309819999999999929e-01 -1.187170000000000031e-01 5.388460000000000472e-01 4.087129999999999930e-01 -1.104052000000000033e+00 -1.063780000000000003e-01 7.959619999999999473e-01 8.485829999999999762e-01 1.427742999999999984e+00 -4.719840000000000146e-01 -7.507089999999999597e-01 -1.310580000000000078e+00 5.802869999999999973e-01 -3.457481000000000027e+00 -4.831099999999999839e-01 -9.352669999999999595e-01 -3.604709999999999859e-01 9.897449999999999859e-01 -4.002900000000000208e-02 6.906700000000000061e-01 1.092570000000000069e-01 4.599829999999999752e-01 1.097148999999999930e+00 1.400309999999999944e+00 -1.097944000000000031e+00 -3.591210000000000235e-01 -1.657637000000000027e+00 6.592970000000000219e-01 -2.239234000000000169e+00 9.326130000000000253e-01 -1.408867000000000091e+00 -1.104122000000000048e+00 1.078186000000000089e+00 -1.234051000000000009e+00 1.359080000000000010e-01 7.076879999999999837e-01 1.095010000000000039e+00 7.359499999999999931e-01 1.374710000000000099e+00 -1.023769999999999958e-01 -8.060500000000000442e-01 -7.823780000000000179e-01 3.706130000000000257e-01 1.555620999999999921e+00 -7.816189999999999527e-01 -1.677190000000000070e-01 1.065344999999999986e+00 1.156595999999999957e+00 -9.288429999999999742e-01 1.372619999999999951e+00 -7.837199999999999722e-01 -7.858099999999999807e-02 3.370170000000000110e-01 2.690199999999999883e-02 5.348770000000000469e-01 4.975849999999999995e-01 -5.220339999999999980e-01 3.303170000000000273e-01 1.412061000000000011e+00 -2.152417999999999942e+00 1.893388999999999989e+00 -9.818350000000000133e-01 2.802689999999999904e-01 -2.302780000000000105e-01 1.922431999999999919e+00 -6.752040000000000264e-01 -8.712220000000000519e-01 -6.795820000000000194e-01 4.060099999999999820e-01 1.442799999999999916e-01 -7.348620000000000152e-01 4.045000000000000262e-01 3.421549999999999869e-01 5.515599999999999670e-02 -8.015139999999999487e-01 1.618979999999999864e-01 -4.980620000000000047e-01 -1.501189000000000107e+00 -9.709449999999999470e-01 -3.135780000000000234e-01 7.447430000000000438e-01 8.637890000000000290e-01 1.823228999999999989e+00 1.278323000000000098e+00 -6.367140000000000022e-01 1.620003000000000082e+00 -1.371370999999999896e+00 3.530739999999999990e-01 -5.400160000000000515e-01 -1.386484000000000050e+00 1.562020000000000075e-01 -1.537282000000000037e+00 1.246083999999999969e+00 3.304690000000000127e-01 1.094989999999999991e-01 1.846694000000000058e+00 1.616879999999999984e-01 -1.801185999999999954e+00 -3.930119999999999725e-01 8.341950000000000198e-01 1.040912999999999977e+00 -1.453821000000000030e+00 -9.405299999999999772e-02 1.420565999999999995e+00 -1.001055999999999946e+00 -8.458999999999999853e-01 -8.483089999999999797e-01 -2.158317999999999959e+00 -9.920400000000000051e-02 1.724499999999999922e-01 -2.331970999999999794e+00 1.058599999999999992e-02 -8.650099999999999456e-01 1.347113000000000005e+00 1.187740000000000046e-01 -1.219999999999999973e+00 4.359979999999999967e-01 -5.101069999999999771e-01 2.108500000000000096e-01 -1.772789999999999921e-01 4.639139999999999930e-01 3.212289999999999868e+00 -1.061430000000000012e-01 1.118398000000000003e+00 7.163840000000000208e-01 5.947569999999999801e-01 -3.180919999999999859e-01 9.864979999999999860e-01 1.736169999999999991e+00 9.756070000000000020e-01 -1.228725999999999985e+00 1.007384000000000057e+00 -1.760834999999999928e+00
4.005550999999999640e+00 -2.015233999999999970e+00 8.697749999999999648e-01 -2.756970000000000254e-01 -2.553199999999999914e-01 5.643329999999999735e-01 1.073002999999999929e+00 2.699898999999999827e+00 -5.218869999999999898e-01 5.547619999999999774e-01 -7.217620000000000147e-01 8.160020000000000051e-01 3.296290000000000053e-01 2.295072999999999919e+00 -2.961670000000000136e-01 4.153599999999999653e-02 -2.058139999999999969e-01 -1.167586999999999930e+00 -3.463669999999999805e-01 -4.668109999999999760e-01 -7.170560000000000267e-01 6.673409999999999620e-01 -5.127939999999999721e-01 -3.151500000000000135e-02 -2.085217000000000098e+00 1.257698999999999900e+00 9.281399999999999373e-02 2.617209999999999814e-01 1.299322000000000088e+00 1.467330000000000023e-01 7.324399999999999800e-01 8.642210000000000170e-01 1.506791999999999909e+00 -2.863419999999999854e-01 1.767706999999999917e+00 -9.347280000000000033e-01 -2.419764999999999944e+00 7.709589999999999499e-01 9.385769999999999946e-01 1.960611000000000104e+00 -2.495100000000000096e-01 -9.268969999999999709e-01 -1.096059999999999951e-01 -5.446100000000000246e-02 2.215200000000000155e-02 -2.722084999999999866e+00 5.626090000000000257e-01 -4.280939999999999745e-01 6.361170000000000435e-01 -1.574581999999999926e+00 7.853459999999999885e-01 2.719215000000000160e+00 6.368319999999999537e-01 -5.793399999999999661e-01 -1.773625000000000007e+00 1.374627999999999961e+00 1.582367000000000079e+00 -4.940260000000000207e-01 5.207819999999999672e-01 -1.953281999999999963e+00 -1.028292999999999902e+00 -3.472955999999999932e+00 2.840849999999999764e-01 -1.984180000000000110e-01 -5.881520000000000081e-01 1.389800000000000063e-02 -1.280249999999999999e-01 -9.565930000000000266e-01 -3.113960000000000061e-01 -9.038659999999999473e-01 -1.339839999999999920e+00 -1.233160999999999952e+00 2.453392000000000017e+00 -1.225694999999999979e+00 -1.845799999999999941e-01 -1.109220000000000095e+00 -3.378240000000000132e-01 1.090303999999999940e+00 2.497287000000000035e+00 -6.360700000000000243e-01 5.714949999999999752e-01 3.406899999999999928e-01 -1.894296999999999898e+00 2.247959999999999958e+00 -3.459329999999999905e-01 2.642021000000000175e+00 3.535989999999999966e-01 1.631583000000000006e+00 2.562199000000000115e+00 7.074989999999999890e-01 1.291920000000000013e-01 5.086570000000000258e-01 -3.867160000000000042e-01 5.360730000000000217e-01 -1.564740000000000020e-01 5.663650000000000073e-01 -3.099000000000000088e-01 -1.514785000000000048e+00 -2.396371999999999947e+00 4.314939999999999887e-01 -7.909869999999999957e-01 6.726050000000000084e-01 -4.665159999999999862e-01 1.908732000000000095e+00 -7.439440000000000497e-01 -1.490806999999999993e+00 1.750800000000000134e-01 1.660879999999999912e+00 -3.785519999999999996e+00 -1.214908000000000099e+00 7.230280000000000040e-01 -1.093148000000000009e+00 -2.089348999999999901e+00 -2.135451000000000210e+00 1.054178999999999977e+00 -1.330699999999999938e-01 1.619589999999999919e-01 -1.950444000000000067e+00 -8.090600000000000014e-01 -4.181869999999999754e-01 -2.119806000000000079e+00 6.544590000000000130e-01 4.194370000000000043e-01 1.791117999999999988e+00 6.392229999999999857e-01 4.589409999999999878e-01 -5.273179999999999534e-01 7.640660000000000229e-01 -1.637840000000000129e-01 -1.866009999999999891e-01 -9.049719999999999986e-01 -2.022224000000000022e+00 4.782420000000000004e-01 1.139356999999999953e+00 3.032650000000000068e-01 -1.301370000000000027e-01 -9.624089999999999590e-01 -3.209980000000000055e-01 1.961508000000000029e+00 4.020399999999999668e-02 3.131550000000000167e-01