-4.188753340499999922e+02
-4.181413008299999774e+02
-4.165402607500000158e+02
-4.171107911999999942e+02
-4.186176280600000155e+02
-4.180492744700000003e+02
-4.186879786999999737e+02
-4.163234496399999784e+02
-4.180079703399999858e+02
-4.172993755499999793e+02
-4.175958388799999739e+02
-4.163468320999999719e+02
-4.166050264500000253e+02
-4.168441185699999778e+02
-4.194100975499999890e+02
-4.196924579199999812e+02
-4.168087711800000079e+02
-4.183862206599999922e+02
-4.170581034799999998e+02
-4.173026024700000107e+02
-4.178016738700000019e+02
-4.203200342000000092e+02
-4.196169307200000276e+02
-4.167316622499999994e+02
-4.153247581699999955e+02
-4.170558104200000002e+02
-4.173518352599999730e+02
-4.167255520300000171e+02
-4.197498495099999900e+02
-4.148269683400000076e+02
-4.185601987599999916e+02
-4.194717941299999779e+02
-4.177817251299999839e+02
-4.164215557599999897e+02
-4.156429697099999885e+02
-4.170924731200000224e+02
-4.167333978799999841e+02
-4.168477508999999941e+02
-4.169038456700000097e+02
-4.174711046400000214e+02
-4.174312750400000027e+02
-4.178676330100000200e+02
-4.172358346799999822e+02
-4.168199821100000122e+02
-4.193894841599999950e+02
-4.177525829699999917e+02
-4.152381229599999983e+02
-4.158459971799999835e+02
-4.172083410100000265e+02
-4.176696691800000281e+02
