1.699179999999999913e+00 1.121129999999999960e+00 4.469500000000000028e+00 1.438280000000000003e+00 7.625100000000000211e-01 9.514369999999999550e+00 7.048000000000000098e-02 4.073900000000000077e+00 4.245599999999999596e+00 -2.759900000000000131e-01 3.423399999999999999e+00 9.375439999999999330e+00 4.285330000000000084e+00 2.273359999999999825e+00 4.518869999999999720e+00 4.639120000000000132e+00 7.611400000000000388e-01 9.770580000000000709e+00 3.032799999999999940e+00 4.827329999999999899e+00 3.968659999999999854e+00 3.041080000000000005e+00 3.493640000000000079e+00 9.563349999999999795e+00 7.345000000000000140e-02 1.728410000000000002e+00 1.840000000000000080e+00 -2.981400000000000161e-01 1.672679999999999945e+00 6.902169999999999916e+00 -1.644470000000000098e+00 4.152829999999999799e+00 1.875839999999999952e+00 -1.748289999999999900e+00 4.428200000000000358e+00 6.964649999999999785e+00 3.213150000000000173e+00 1.400220000000000020e+00 2.005349999999999966e+00 2.973590000000000177e+00 1.745970000000000022e+00 7.436969999999999636e+00 1.569490000000000052e+00 4.182850000000000179e+00 1.550429999999999975e+00 1.338619999999999921e+00 4.391680000000000028e+00 7.286940000000000417e+00 4.873129999999999740e+00 7.019499999999999629e-01 1.625709999999999988e+00 1.282890000000000086e+00 8.015600000000000502e-01 7.607850000000000001e+00 -1.815999999999999906e-02 3.497370000000000090e+00 2.433980000000000032e+00 -3.053100000000000258e-01 3.440939999999999888e+00 7.527519999999999989e+00 1.049400000000000110e+00 4.337199999999999944e-01 2.750599999999999934e+00 4.551379999999999981e+00 7.938600000000000101e-01 7.607759999999999856e+00 3.077929999999999833e+00 3.298090000000000188e+00 2.563190000000000079e+00 3.029749999999999943e+00 3.587470000000000159e+00 7.754269999999999996e+00 -1.740500000000000103e-01 1.552389999999999937e+00 4.890430000000000277e+00 -9.185999999999999721e-02 1.669969999999999954e+00 1.006223999999999918e+01 -1.873690000000000078e+00 4.081739999999999924e+00 5.059520000000000017e+00 -1.575339999999999963e+00 4.473519999999999719e+00 6.747999999999999832e-02 2.752850000000000019e+00 2.094650000000000123e+00 5.597690000000000055e+00 3.003969999999999807e+00 1.680109999999999992e+00 9.973699999999999122e+00 1.638800000000000034e+00 4.374579999999999913e+00 5.255819999999999936e+00 1.341050000000000075e+00 4.183159999999999989e+00 9.831889999999999574e+00 3.543120000000000047e+00 5.938200000000000145e-01 3.846309999999999896e+00
1.643860000000000099e+00 1.190790000000000015e+00 4.415090000000000181e+00 1.559299999999999908e+00 1.358530000000000015e+00 9.498250000000000526e+00 1.545999999999999874e-01 4.043750000000000178e+00 4.459310000000000329e+00 1.365000000000000067e-02 4.009170000000000122e+00 9.442980000000000373e+00 4.665250000000000341e+00 1.281039999999999957e+00 4.826249999999999929e+00 4.679100000000000037e+00 1.315600000000000103e+00 9.695299999999999585e+00 3.186539999999999928e+00 3.933949999999999836e+00 4.340790000000000148e+00 3.198080000000000034e+00 3.952350000000000030e+00 9.528380000000000294e+00 -1.161999999999999977e-01 1.731389999999999985e+00 1.780920000000000059e+00 7.957000000000000184e-02 2.186830000000000052e+00 6.988389999999999880e+00 -1.681410000000000071e+00 4.288929999999999687e+00 1.826570000000000027e+00 -1.450720000000000010e+00 4.876660000000000217e+00 7.044439999999999813e+00 3.027359999999999829e+00 1.579749999999999988e+00 1.950369999999999937e+00 3.190290000000000070e+00 2.210069999999999979e+00 7.165259999999999962e+00 1.477659999999999973e+00 4.117189999999999905e+00 1.660959999999999992e+00 1.651720000000000077e+00 4.828680000000000305e+00 7.179710000000000036e+00 4.615169999999999995e+00 6.614400000000000279e-01 1.676949999999999941e+00 1.611560000000000104e+00 1.357569999999999943e+00 7.638130000000000308e+00 -7.195999999999999619e-02 3.528659999999999908e+00 2.467929999999999957e+00 8.658000000000000418e-02 3.957520000000000149e+00 7.598989999999999689e+00 1.120679999999999898e+00 6.709899999999999753e-01 2.609579999999999789e+00 4.744170000000000442e+00 1.347779999999999978e+00 7.636050000000000004e+00 2.997129999999999850e+00 3.411950000000000038e+00 2.467810000000000059e+00 3.213680000000000092e+00 3.992700000000000138e+00 7.676020000000000287e+00 1.087899999999999978e-01 2.200590000000000046e+00 5.098609999999999864e+00 7.668999999999999428e-02 2.258669999999999956e+00 1.007471999999999923e+01 -1.518869999999999942e+00 4.792200000000000237e+00 5.221000000000000085e+00 -1.493030000000000079e+00 4.866920000000000357e+00 1.013624000000000080e+01 3.161989999999999856e+00 2.563159999999999883e+00 5.375960000000000072e+00 3.063829999999999831e+00 2.191120000000000179e+00 1.013017999999999930e+01 1.694350000000000023e+00 4.725909999999999833e+00 5.276690000000000325e+00 1.610589999999999966e+00 4.719140000000000335e+00 9.969739999999999824e+00 3.356129999999999836e+00 6.902800000000000047e-01 3.707269999999999843e+00
1.457840000000000025e+00 1.080300000000000038e+00 4.217939999999999579e+00 1.264520000000000088e+00 8.387200000000000211e-01 9.554119999999999280e+00 -1.902300000000000102e-01 3.571530000000000094e+00 4.505939999999999834e+00 -4.281400000000000206e-01 3.652449999999999974e+00 9.532249999999999446e+00 4.170930000000000248e+00 1.150190000000000046e+00 5.308180000000000121e+00 4.445929999999999715e+00 8.697899999999999521e-01 9.731130000000000280e+00 3.030759999999999899e+00 3.597170000000000201e+00 4.467220000000000191e+00 2.859170000000000211e+00 3.779329999999999856e+00 9.647380000000000067e+00 -9.889000000000000568e-02 1.898579999999999934e+00 1.715700000000000003e+00 -1.705699999999999994e-01 1.887790000000000079e+00 6.964170000000000194e+00 -1.678460000000000063e+00 4.615140000000000242e+00 1.951549999999999896e+00 -1.823720000000000008e+00 4.655120000000000147e+00 6.953949999999999854e+00 3.011569999999999858e+00 1.853860000000000063e+00 1.839490000000000069e+00 2.859440000000000204e+00 1.884519999999999973e+00 7.396950000000000358e+00 1.436579999999999968e+00 4.551580000000000403e+00 1.901729999999999920e+00 1.342279999999999918e+00 4.660560000000000258e+00 7.156990000000000407e+00 4.758720000000000283e+00 8.912999999999999812e-01 1.521640000000000104e+00 1.299830000000000041e+00 8.782900000000000151e-01 7.652309999999999945e+00 -7.127000000000000002e-02 3.591190000000000104e+00 2.614320000000000199e+00 -2.449099999999999888e-01 3.720200000000000173e+00 7.631829999999999892e+00 1.348570000000000046e+00 9.275700000000000056e-01 2.343100000000000183e+00 4.581100000000000172e+00 9.094799999999999551e-01 7.108019999999999783e+00 3.166790000000000216e+00 3.614030000000000076e+00 2.403570000000000206e+00 3.035099999999999909e+00 3.833429999999999893e+00 7.774359999999999715e+00 -5.018099999999999783e-01 1.681499999999999995e+00 4.922159999999999869e+00 -2.234800000000000120e-01 1.883629999999999916e+00 9.938969999999999416e+00 -1.685489999999999933e+00 4.803899999999999615e+00 4.968630000000000102e+00 -1.570889999999999898e+00 4.623499999999999943e+00 9.640999999999999570e-02 2.566699999999999982e+00 1.998879999999999990e+00 5.484409999999999563e+00 2.818760000000000154e+00 1.904430000000000067e+00 9.828480000000000771e+00 1.394760000000000000e+00 4.236340000000000217e+00 5.302579999999999849e+00 1.144099999999999895e+00 4.482330000000000148e+00 1.006137999999999977e+01 3.838099999999999845e+00 9.914199999999999680e-01 3.542730000000000157e+00
1.705899999999999972e+00 1.168639999999999901e+00 4.333520000000000039e+00 1.585369999999999946e+00 1.001770000000000049e+00 9.388049999999999784e+00 1.368800000000000017e-01 3.767619999999999969e+00 4.319910000000000139e+00 -5.888999999999999790e-02 3.478540000000000187e+00 9.226820000000000022e+00 4.382810000000000095e+00 2.084870000000000001e+00 4.719140000000000335e+00 4.688130000000000130e+00 9.235799999999999566e-01 9.608719999999999928e+00 3.152260000000000062e+00 4.708689999999999820e+00 3.853310000000000013e+00 3.257870000000000044e+00 3.598059999999999814e+00 9.321320000000000050e+00 -8.634000000000000008e-02 1.802189999999999959e+00 1.820380000000000109e+00 9.787999999999999479e-02 1.706700000000000106e+00 6.882520000000000415e+00 -1.515619999999999967e+00 4.388180000000000192e+00 1.699920000000000098e+00 -1.418719999999999981e+00 4.615129999999999733e+00 6.938810000000000144e+00 3.018009999999999859e+00 1.613590000000000080e+00 1.906330000000000080e+00 3.255840000000000067e+00 1.846940000000000026e+00 7.271460000000000257e+00 1.469170000000000087e+00 4.293029999999999902e+00 1.590079999999999938e+00 1.522270000000000012e+00 4.698590000000000266e+00 6.892039999999999722e+00 4.625630000000000130e+00 7.411900000000000155e-01 1.659859999999999891e+00 1.672900000000000054e+00 9.982900000000000107e-01 7.567999999999999616e+00 -2.000000000000000164e-05 3.507369999999999877e+00 2.416490000000000027e+00 8.903999999999999415e-02 3.690819999999999990e+00 7.419069999999999609e+00 1.089630000000000098e+00 5.875599999999999712e-01 2.568709999999999827e+00 4.791619999999999990e+00 1.003390000000000004e+00 7.741579999999999906e+00 2.877470000000000194e+00 3.578809999999999825e+00 2.449669999999999792e+00 3.109890000000000043e+00 3.713400000000000034e+00 7.432800000000000296e+00 1.520799999999999930e-01 2.019099999999999895e+00 5.075859999999999594e+00 1.961400000000000088e-01 1.901829999999999909e+00 1.000765999999999956e+01 -1.549600000000000088e+00 4.283459999999999823e+00 5.087850000000000428e+00 -1.367699999999999916e+00 4.584590000000000387e+00 9.894059999999999633e+00 2.758610000000000007e+00 2.136270000000000113e+00 5.527989999999999959e+00 3.020579999999999821e+00 1.911569999999999991e+00 1.000974000000000075e+01 1.748259999999999925e+00 4.324770000000000003e+00 5.114020000000000010e+00 1.616540000000000088e+00 4.343810000000000393e+00 9.783810000000000784e+00 3.397600000000000176e+00 9.567999999999999838e-01 3.705579999999999874e+00
1.784370000000000012e+00 1.088370000000000060e+00 4.512450000000000294e+00 1.488879999999999981e+00 1.018100000000000005e+00 9.679149999999999920e+00 1.058800000000000019e-01 3.652340000000000142e+00 4.467209999999999681e+00 -1.188400000000000012e-01 3.715359999999999996e+00 9.523740000000000094e+00 4.429829999999999934e+00 2.180039999999999978e+00 4.918219999999999814e+00 4.666680000000000383e+00 1.068950000000000067e+00 9.881389999999999674e+00 3.162570000000000103e+00 4.648760000000000225e+00 4.081299999999999706e+00 3.112350000000000172e+00 3.763170000000000126e+00 9.656399999999999650e+00 -1.617999999999999994e-02 1.720660000000000078e+00 1.852000000000000091e+00 -9.128999999999999615e-02 1.867699999999999916e+00 7.154910000000000103e+00 -1.544030000000000014e+00 4.379069999999999574e+00 1.882149999999999990e+00 -1.601660000000000084e+00 4.595760000000000289e+00 7.003149999999999764e+00 3.138450000000000184e+00 1.718089999999999895e+00 1.933869999999999978e+00 3.076690000000000147e+00 1.925519999999999898e+00 7.512599999999999945e+00 1.544559999999999933e+00 4.235269999999999868e+00 1.653469999999999995e+00 1.491030000000000078e+00 4.612049999999999983e+00 7.180500000000000327e+00 4.745420000000000194e+00 7.227400000000000491e-01 1.706749999999999989e+00 1.488720000000000043e+00 1.007810000000000095e+00 7.808379999999999654e+00 5.490000000000000088e-03 3.545329999999999870e+00 2.547969999999999846e+00 -6.383999999999999397e-02 3.697090000000000209e+00 7.686289999999999623e+00 1.098570000000000046e+00 5.995000000000000329e-01 2.796479999999999855e+00 4.664600000000000080e+00 1.041269999999999918e+00 7.823990000000000222e+00 3.100420000000000176e+00 3.548929999999999918e+00 2.466819999999999791e+00 3.107070000000000221e+00 3.794579999999999842e+00 7.751420000000000421e+00 -8.504000000000000448e-02 1.943840000000000012e+00 5.184590000000000032e+00 2.732000000000000053e-02 2.010609999999999786e+00 1.019627999999999979e+01 -1.555039999999999978e+00 4.353460000000000107e+00 5.103460000000000107e+00 -1.645969999999999933e+00 4.594899999999999984e+00 1.028964999999999996e+01 2.755910000000000082e+00 2.183069999999999844e+00 5.738699999999999690e+00 3.002720000000000056e+00 1.996930000000000094e+00 1.019782000000000011e+01 1.647149999999999892e+00 4.513370000000000104e+00 5.152160000000000295e+00 1.477209999999999912e+00 4.529219999999999580e+00 1.013179000000000052e+01 3.548029999999999795e+00 1.012429999999999941e+00 3.740069999999999784e+00
1.501579999999999915e+00 9.485900000000000443e-01 4.669030000000000236e+00 1.259160000000000057e+00 6.324199999999999822e-01 9.531560000000000699e+00 -1.223599999999999965e-01 3.673719999999999875e+00 4.846829999999999750e+00 -2.002299999999999913e-01 3.472640000000000171e+00 1.011369999999999969e+01 4.607440000000000424e+00 7.551700000000000079e-01 5.259719999999999729e+00 4.596599999999999575e+00 6.374199999999999866e-01 9.806229999999999336e+00 2.985549999999999926e+00 3.647559999999999913e+00 4.454790000000000028e+00 3.026219999999999910e+00 3.331620000000000026e+00 9.778460000000000818e+00 9.160000000000000087e-02 1.712939999999999907e+00 1.731619999999999937e+00 -1.504300000000000082e-01 1.616640000000000077e+00 7.281259999999999621e+00 -1.651140000000000052e+00 4.489659999999999762e+00 1.828330000000000011e+00 -1.833539999999999948e+00 4.347859999999999836e+00 7.112009999999999721e+00 3.070500000000000007e+00 1.922719999999999985e+00 1.691729999999999956e+00 3.016090000000000160e+00 1.737800000000000011e+00 7.246719999999999828e+00 1.827450000000000019e+00 4.776670000000000194e+00 1.781590000000000007e+00 1.384689999999999976e+00 4.207390000000000185e+00 7.431189999999999962e+00 4.823310000000000208e+00 1.030459999999999932e+00 2.072869999999999990e+00 1.455470000000000041e+00 8.657299999999999995e-01 7.639120000000000132e+00 -5.603999999999999954e-02 3.618850000000000122e+00 2.143740000000000201e+00 -2.413899999999999935e-01 3.415230000000000210e+00 8.004609999999999559e+00 1.614999999999999991e+00 8.885699999999999710e-01 2.477360000000000007e+00 4.618839999999999613e+00 7.760599999999999721e-01 7.718829999999999636e+00 3.154259999999999842e+00 3.660849999999999937e+00 2.622729999999999784e+00 3.175590000000000135e+00 3.304850000000000065e+00 8.054249999999999687e+00 -2.696899999999999853e-01 1.811109999999999998e+00 5.398349999999999760e+00 -1.626299999999999968e-01 1.549590000000000023e+00 1.032835999999999999e+01 -1.953480000000000105e+00 4.493870000000000253e+00 5.299470000000000347e+00 -1.880349999999999966e+00 4.229659999999999975e+00 1.040265999999999913e+01 3.132190000000000030e+00 1.819160000000000110e+00 5.275079999999999991e+00 2.842610000000000081e+00 1.418490000000000029e+00 1.010283000000000087e+01 1.467659999999999965e+00 4.410519999999999996e+00 5.644350000000000200e+00 1.419410000000000061e+00 4.426470000000000127e+00 1.039105999999999952e+01 3.614050000000000207e+00 4.812999999999999917e-02 3.815209999999999990e+00
1.740680000000000005e+00 1.253130000000000077e+00 4.475600000000000023e+00 1.567819999999999991e+00 1.282350000000000101e+00 9.553319999999999368e+00 1.391999999999999904e-01 4.220950000000000202e+00 4.330379999999999896e+00 -4.279999999999999950e-03 3.946110000000000007e+00 9.458099999999999952e+00 4.530800000000000161e+00 2.097240000000000215e+00 4.621889999999999610e+00 4.665269999999999584e+00 1.287430000000000074e+00 9.765019999999999811e+00 3.053310000000000191e+00 4.752659999999999663e+00 3.957050000000000178e+00 3.141230000000000189e+00 3.950250000000000039e+00 9.526579999999999160e+00 -1.074999999999999914e-02 1.733689999999999953e+00 1.810939999999999994e+00 5.068999999999999895e-02 2.170139999999999958e+00 7.071570000000000356e+00 -1.596500000000000030e+00 4.305250000000000021e+00 1.840889999999999915e+00 -1.483500000000000041e+00 4.816040000000000099e+00 6.977649999999999686e+00 3.011730000000000018e+00 1.611250000000000071e+00 1.945389999999999953e+00 3.173700000000000188e+00 2.127330000000000165e+00 7.322899999999999743e+00 1.462220000000000075e+00 4.198000000000000398e+00 1.688900000000000068e+00 1.575460000000000083e+00 4.932750000000000412e+00 7.073190000000000310e+00 4.643340000000000245e+00 6.923000000000000265e-01 1.645040000000000058e+00 1.582489999999999952e+00 1.238769999999999927e+00 7.664450000000000429e+00 -5.083000000000000018e-02 3.508350000000000080e+00 2.472919999999999785e+00 5.491000000000000048e-02 4.001549999999999940e+00 7.580610000000000070e+00 1.164250000000000007e+00 6.073300000000000365e-01 2.663339999999999819e+00 4.696500000000000341e+00 1.293199999999999905e+00 7.742910000000000181e+00 2.978610000000000202e+00 3.511989999999999945e+00 2.537389999999999812e+00 3.116659999999999986e+00 3.948469999999999924e+00 7.633560000000000123e+00 1.514800000000000035e-01 2.243819999999999926e+00 5.112390000000000434e+00 1.433399999999999952e-01 2.243119999999999781e+00 1.009833000000000069e+01 -1.614290000000000003e+00 4.745580000000000354e+00 5.124760000000000204e+00 -1.508019999999999916e+00 4.878999999999999559e+00 1.015787000000000084e+01 2.912809999999999899e+00 2.457510000000000083e+00 5.497749999999999915e+00 3.058240000000000069e+00 2.205519999999999925e+00 1.018382000000000076e+01 1.760299999999999976e+00 4.565279999999999561e+00 5.229989999999999917e+00 1.578869999999999996e+00 4.735920000000000130e+00 1.001356000000000002e+01 3.468469999999999942e+00 8.367599999999999483e-01 3.795799999999999841e+00
1.593769999999999909e+00 8.157400000000000206e-01 5.263160000000000061e+00 1.357679999999999998e+00 6.903099999999999792e-01 1.026201000000000008e+01 1.582300000000000095e-01 3.569370000000000154e+00 5.250580000000000247e+00 -1.333100000000000118e-01 3.393660000000000121e+00 1.019408999999999921e+01 4.484110000000000262e+00 9.227699999999999791e-01 5.349759999999999849e+00 4.487750000000000128e+00 6.549800000000000066e-01 1.041216999999999970e+01 2.971060000000000034e+00 3.547620000000000218e+00 4.971980000000000288e+00 2.921300000000000008e+00 3.537220000000000031e+00 1.046063999999999972e+01 1.448800000000000088e-01 1.552130000000000010e+00 1.809849999999999959e+00 1.034000000000000023e-02 1.695489999999999942e+00 7.791809999999999903e+00 -1.614729999999999999e+00 4.384420000000000428e+00 1.731770000000000032e+00 -1.729549999999999921e+00 4.426479999999999748e+00 7.721750000000000114e+00 3.143400000000000194e+00 1.830680000000000085e+00 1.652630000000000043e+00 2.985840000000000050e+00 1.680150000000000032e+00 7.786480000000000068e+00 1.411589999999999900e+00 4.279740000000000322e+00 1.813549999999999995e+00 1.538990000000000080e+00 4.586969999999999992e+00 7.773460000000000036e+00 4.632889999999999731e+00 8.025400000000000311e-01 2.072239999999999860e+00 1.417249999999999899e+00 7.210499999999999687e-01 8.486750000000000682e+00 -1.153799999999999965e-01 3.365590000000000082e+00 2.343820000000000014e+00 -8.630999999999999783e-02 3.582160000000000011e+00 8.178350000000000009e+00 1.711619999999999919e+00 7.858600000000000030e-01 2.415939999999999976e+00 4.556949999999999612e+00 8.140699999999999603e-01 8.538930000000000575e+00 2.868459999999999788e+00 3.602770000000000028e+00 2.575050000000000061e+00 2.930810000000000137e+00 3.500410000000000021e+00 8.593609999999999971e+00 -3.867999999999999911e-02 1.637320000000000109e+00 5.861930000000000085e+00 1.576999999999999930e-02 1.697570000000000023e+00 1.086579000000000050e+01 -1.496110000000000051e+00 4.334360000000000213e+00 5.678530000000000300e+00 -1.671100000000000030e+00 4.296990000000000087e+00 1.100389000000000017e+01 3.059499999999999886e+00 1.782229999999999981e+00 5.968759999999999621e+00 3.118720000000000159e+00 1.748199999999999976e+00 1.102349000000000068e+01 1.632749999999999924e+00 4.464000000000000412e+00 5.978519999999999612e+00 1.350230000000000041e+00 4.364040000000000141e+00 1.087049000000000021e+01 3.271809999999999885e+00 1.388999999999999957e-02 4.146740000000000315e+00
1.847839999999999927e+00 8.574899999999999745e-01 4.416479999999999961e+00 1.373220000000000107e+00 8.611699999999999910e-01 9.562910000000000466e+00 7.524999999999999745e-02 3.513609999999999900e+00 4.376629999999999576e+00 -1.849600000000000133e-01 3.570530000000000204e+00 9.408039999999999736e+00 4.153240000000000265e+00 2.387750000000000039e+00 4.907820000000000071e+00 4.547690000000000232e+00 8.995800000000000463e-01 9.720240000000000435e+00 3.032770000000000188e+00 4.655289999999999928e+00 3.982439999999999980e+00 3.016490000000000116e+00 3.560049999999999937e+00 9.557349999999999568e+00 6.058000000000000190e-02 1.749060000000000059e+00 1.761370000000000102e+00 -1.009800000000000003e-01 1.700849999999999973e+00 6.993280000000000385e+00 -1.570889999999999898e+00 4.321500000000000341e+00 1.875369999999999981e+00 -1.674549999999999983e+00 4.402199999999999669e+00 6.980559999999999654e+00 3.118259999999999810e+00 1.707589999999999941e+00 1.948669999999999902e+00 2.949879999999999836e+00 1.733719999999999928e+00 7.395830000000000126e+00 1.513779999999999903e+00 4.200040000000000440e+00 1.646649999999999947e+00 1.483840000000000048e+00 4.403170000000000250e+00 7.052889999999999660e+00 4.782379999999999853e+00 7.066099999999999604e-01 1.817479999999999984e+00 1.367340000000000000e+00 7.517800000000000038e-01 7.722170000000000201e+00 1.078999999999999924e-02 3.506450000000000067e+00 2.525389999999999802e+00 -1.151400000000000062e-01 3.531569999999999876e+00 7.536539999999999573e+00 1.323290000000000077e+00 6.697800000000000420e-01 2.666249999999999787e+00 4.609619999999999607e+00 8.676500000000000323e-01 7.622860000000000191e+00 3.088319999999999954e+00 3.598259999999999792e+00 2.442559999999999842e+00 3.078549999999999898e+00 3.571880000000000166e+00 7.725469999999999615e+00 -3.307999999999999829e-01 1.707030000000000047e+00 4.974169999999999980e+00 -1.340300000000000102e-01 1.820510000000000073e+00 1.006387999999999927e+01 -1.701089999999999991e+00 4.291960000000000441e+00 5.020450000000000301e+00 -1.724409999999999998e+00 4.426230000000000331e+00 1.014677000000000007e+01 2.541589999999999794e+00 2.045100000000000140e+00 5.648970000000000269e+00 2.919230000000000214e+00 1.776920000000000055e+00 1.010501000000000005e+01 1.474499999999999922e+00 4.555860000000000021e+00 5.039170000000000371e+00 1.389199999999999990e+00 4.395059999999999967e+00 9.984840000000000160e+00 3.657420000000000115e+00 1.084710000000000063e+00 3.802439999999999820e+00
1.750250000000000083e+00 1.299379999999999979e+00 4.528669999999999973e+00 1.544349999999999890e+00 1.314969999999999972e+00 9.572580000000000311e+00 5.854999999999999788e-02 4.234989999999999810e+00 4.323789999999999800e+00 -3.124000000000000041e-02 3.974749999999999783e+00 9.441670000000000229e+00 4.524960000000000093e+00 2.129360000000000142e+00 4.725329999999999586e+00 4.694209999999999994e+00 1.382060000000000066e+00 9.745020000000000238e+00 3.059810000000000141e+00 4.715499999999999581e+00 3.917520000000000113e+00 3.141210000000000058e+00 3.991989999999999927e+00 9.532450000000000756e+00 -7.044000000000000261e-02 1.752750000000000030e+00 1.822549999999999892e+00 3.525999999999999968e-02 2.233400000000000052e+00 7.030770000000000408e+00 -1.646439999999999904e+00 4.287539999999999907e+00 1.797830000000000039e+00 -1.555160000000000098e+00 4.806049999999999933e+00 6.983780000000000321e+00 3.076259999999999994e+00 1.609250000000000069e+00 2.035299999999999887e+00 3.116800000000000015e+00 2.157340000000000035e+00 7.409379999999999633e+00 1.493880000000000097e+00 4.196959999999999802e+00 1.652379999999999960e+00 1.536999999999999922e+00 4.951810000000000045e+00 7.104709999999999859e+00 4.655400000000000205e+00 7.195500000000000229e-01 1.675049999999999928e+00 1.521200000000000108e+00 1.255360000000000031e+00 7.679800000000000182e+00 -3.193000000000000005e-02 3.538330000000000197e+00 2.463099999999999845e+00 -2.299999999999999961e-03 4.040239999999999831e+00 7.585069999999999979e+00 1.207959999999999923e+00 6.781000000000000361e-01 2.607409999999999783e+00 4.763049999999999784e+00 1.385799999999999921e+00 7.717209999999999681e+00 3.015579999999999927e+00 3.533980000000000121e+00 2.470579999999999998e+00 3.092379999999999907e+00 4.001599999999999824e+00 7.629159999999999719e+00 1.523899999999999977e-01 2.266439999999999788e+00 5.106110000000000149e+00 1.180199999999999999e-01 2.309709999999999930e+00 1.011879000000000062e+01 -1.721000000000000085e+00 4.677340000000000053e+00 5.080659999999999954e+00 -1.546310000000000073e+00 4.854630000000000223e+00 1.017428999999999917e+01 2.936710000000000154e+00 2.424650000000000194e+00 5.582580000000000098e+00 3.020750000000000046e+00 2.267549999999999955e+00 1.008458000000000077e+01 1.764760000000000106e+00 4.523209999999999731e+00 5.238039999999999807e+00 1.550620000000000109e+00 4.770629999999999704e+00 9.987560000000000215e+00 3.505409999999999915e+00 8.531800000000000495e-01 3.834319999999999951e+00
1.483079999999999954e+00 8.494599999999999929e-01 4.594839999999999591e+00 1.037949999999999928e+00 1.123939999999999939e+00 9.645699999999999719e+00 -2.701200000000000268e-01 3.706129999999999924e+00 4.536430000000000184e+00 -4.410499999999999976e-01 3.993749999999999911e+00 9.534359999999999502e+00 4.215040000000000120e+00 1.061530000000000085e+00 5.416039999999999743e+00 4.215410000000000323e+00 1.145850000000000035e+00 9.893860000000000099e+00 2.924589999999999801e+00 3.679050000000000153e+00 4.539719999999999978e+00 2.739630000000000010e+00 3.816800000000000193e+00 9.565440000000000609e+00 5.559999999999999665e-02 1.966760000000000064e+00 1.647159999999999958e+00 -3.897599999999999953e-01 1.932739999999999903e+00 7.172519999999999563e+00 -1.742459999999999898e+00 4.584380000000000344e+00 1.941419999999999924e+00 -1.909569999999999990e+00 4.607920000000000016e+00 6.951139999999999652e+00 3.067039999999999988e+00 1.850049999999999972e+00 1.817770000000000108e+00 2.596550000000000136e+00 1.954830000000000068e+00 7.426919999999999966e+00 1.561369999999999925e+00 4.418929999999999580e+00 1.739319999999999977e+00 1.213619999999999921e+00 4.578669999999999796e+00 6.972669999999999924e+00 4.835399999999999920e+00 9.118899999999999784e-01 1.828589999999999938e+00 1.100109999999999921e+00 1.011530000000000040e+00 7.727389999999999759e+00 -5.281999999999999890e-02 3.729039999999999910e+00 2.496030000000000193e+00 -3.581599999999999784e-01 3.755920000000000147e+00 7.531900000000000261e+00 1.490059999999999940e+00 9.554000000000000270e-01 2.292520000000000113e+00 4.236150000000000304e+00 1.119150000000000089e+00 7.565859999999999808e+00 2.956409999999999982e+00 3.727240000000000109e+00 2.653620000000000090e+00 2.751219999999999999e+00 3.846560000000000201e+00 7.728390000000000093e+00 -2.248400000000000121e-01 1.973589999999999955e+00 5.202009999999999579e+00 -4.208600000000000119e-01 2.228139999999999787e+00 9.941940000000000666e+00 -1.874319999999999986e+00 4.582069999999999865e+00 5.087839999999999918e+00 -2.025160000000000071e+00 4.706879999999999953e+00 1.022446000000000055e+01 2.455309999999999881e+00 2.206620000000000026e+00 5.637769999999999726e+00 2.623000000000000220e+00 1.999100000000000099e+00 1.003030000000000044e+01 1.234439999999999982e+00 4.811700000000000088e+00 5.107549999999999812e+00 1.222089999999999899e+00 4.747799999999999798e+00 1.006682999999999950e+01 3.541640000000000121e+00 1.184609999999999941e+00 3.634469999999999867e+00
1.746680000000000010e+00 9.822199999999999820e-01 5.091619999999999813e+00 1.651129999999999987e+00 9.265499999999999847e-01 1.001539999999999964e+01 1.620800000000000018e-01 4.023550000000000182e+00 4.894560000000000244e+00 7.367999999999999550e-02 3.622419999999999973e+00 1.008459000000000039e+01 4.957980000000000054e+00 8.722699999999999898e-01 5.335530000000000328e+00 4.926400000000000112e+00 8.798799999999999955e-01 1.017422000000000004e+01 3.256200000000000205e+00 3.584820000000000118e+00 4.863900000000000112e+00 3.355160000000000142e+00 3.800699999999999967e+00 1.015401999999999916e+01 -4.229999999999999732e-02 1.754170000000000007e+00 1.695230000000000015e+00 3.543700000000000183e-01 1.938800000000000079e+00 7.531749999999999723e+00 -1.893429999999999946e+00 4.372010000000000396e+00 1.951820000000000110e+00 -1.383769999999999945e+00 4.792939999999999756e+00 7.380359999999999587e+00 2.760440000000000005e+00 1.543749999999999956e+00 1.785530000000000062e+00 3.348770000000000024e+00 1.956390000000000073e+00 7.641779999999999795e+00 1.564699999999999980e+00 4.445210000000000328e+00 1.822959999999999914e+00 1.828580000000000094e+00 4.724370000000000402e+00 7.399790000000000312e+00 4.513670000000000293e+00 7.925200000000000022e-01 2.021319999999999784e+00 1.714530000000000109e+00 9.242899999999999450e-01 8.217829999999999302e+00 -1.046099999999999947e-01 3.583610000000000184e+00 2.176200000000000134e+00 2.718800000000000106e-01 3.820419999999999927e+00 7.889770000000000394e+00 1.368880000000000097e+00 6.819899999999999851e-01 2.492710000000000203e+00 4.998289999999999900e+00 1.109380000000000033e+00 8.047090000000000742e+00 3.003929999999999989e+00 3.407659999999999911e+00 2.606869999999999798e+00 3.207110000000000127e+00 3.702920000000000211e+00 8.277049999999999130e+00 2.058899999999999897e-01 1.887729999999999908e+00 5.550419999999999909e+00 2.238900000000000057e-01 1.866160000000000041e+00 1.050980999999999987e+01 -1.552720000000000100e+00 4.553300000000000125e+00 5.497849999999999682e+00 -1.401890000000000081e+00 4.717360000000000220e+00 1.065075000000000038e+01 3.194630000000000081e+00 2.078609999999999847e+00 5.816989999999999661e+00 3.135269999999999779e+00 1.940059999999999896e+00 1.074337000000000053e+01 1.787819999999999965e+00 4.534200000000000230e+00 5.680850000000000399e+00 1.680460000000000065e+00 4.481110000000000149e+00 1.068764999999999965e+01 3.521059999999999857e+00 3.322999999999999843e-01 3.962849999999999984e+00