8.715956836000000152e+00 0.000000000000000000e+00 0.000000000000000000e+00 4.338076531999999652e+00 7.388913397999999688e+00 0.000000000000000000e+00 4.387174220000000346e+00 2.478053814999999993e+00 7.026630688000000013e+00
8.697429914000000650e+00 0.000000000000000000e+00 0.000000000000000000e+00 4.315312116000000309e+00 7.410641754000000248e+00 0.000000000000000000e+00 4.381881618999999617e+00 2.463992270999999956e+00 7.073161630999999616e+00
8.753298825999999977e+00 0.000000000000000000e+00 0.000000000000000000e+00 4.341788704999999915e+00 7.408001636999999917e+00 0.000000000000000000e+00 4.407932073999999645e+00 2.516657068999999858e+00 7.086801634000000405e+00
8.724571178999999788e+00 0.000000000000000000e+00 0.000000000000000000e+00 4.344831437999999935e+00 7.419728111999999598e+00 0.000000000000000000e+00 4.367996997999999742e+00 2.514918517999999992e+00 7.102959100999999720e+00
8.537657027999999926e+00 0.000000000000000000e+00 0.000000000000000000e+00 4.178325672999999796e+00 7.527876885000000406e+00 0.000000000000000000e+00 4.369567942999999843e+00 2.471805510999999900e+00 7.050072660999999741e+00
8.589334195999999366e+00 0.000000000000000000e+00 0.000000000000000000e+00 4.224433857000000181e+00 7.504799960999999797e+00 0.000000000000000000e+00 4.407016048000000019e+00 2.465896004000000197e+00 7.016998335000000253e+00
8.757510138000000666e+00 0.000000000000000000e+00 0.000000000000000000e+00 4.318624449999999726e+00 7.377057824999999625e+00 0.000000000000000000e+00 4.445633725999999619e+00 2.456074230000000025e+00 7.009812214000000097e+00
8.745523006999999183e+00 0.000000000000000000e+00 0.000000000000000000e+00 4.395278534000000015e+00 7.365160666000000411e+00 0.000000000000000000e+00 4.330925877000000312e+00 2.392458069999999992e+00 7.044496155000000037e+00
