6.092587629999999699e+00 0.000000000000000000e+00 0.000000000000000000e+00 -3.052353448999999941e+00 5.336326964999999589e+00 0.000000000000000000e+00 -1.936518419999999907e-01 1.921160070000000053e-01 1.001965110299999928e+01
6.130823744999999825e+00 0.000000000000000000e+00 0.000000000000000000e+00 -3.067639542000000219e+00 5.340815272000000391e+00 0.000000000000000000e+00 1.069224839999999982e-01 -1.024590719999999983e-01 1.086474873300000077e+01
6.147007408000000339e+00 0.000000000000000000e+00 0.000000000000000000e+00 -3.068535214999999816e+00 5.199626024999999707e+00 0.000000000000000000e+00 -2.023130989999999962e-01 4.654752620000000007e-01 1.007711578400000008e+01
6.148698314999999859e+00 0.000000000000000000e+00 0.000000000000000000e+00 -3.064611135999999902e+00 5.256072591999999766e+00 0.000000000000000000e+00 -2.545211620000000230e-01 3.411876529999999796e-01 1.017915776699999952e+01
6.235673517999999582e+00 0.000000000000000000e+00 0.000000000000000000e+00 -3.164639511999999932e+00 5.393152199000000202e+00 0.000000000000000000e+00 -1.247492320000000016e-01 3.493081169999999736e-01 1.021677453899999932e+01
6.280690393000000427e+00 0.000000000000000000e+00 0.000000000000000000e+00 -3.115583149999999968e+00 5.394623968000000325e+00 0.000000000000000000e+00 -1.056202009999999969e-01 5.700672770000000389e-01 1.067424729100000036e+01
6.319277205999999758e+00 0.000000000000000000e+00 0.000000000000000000e+00 -3.116490352000000019e+00 5.432503125000000210e+00 0.000000000000000000e+00 1.065183459999999999e-01 1.325581710000000024e-01 1.030999018300000003e+01
6.191339046000000401e+00 0.000000000000000000e+00 0.000000000000000000e+00 -3.199757541999999955e+00 5.355313796999999987e+00 0.000000000000000000e+00 -5.289740880000000089e-01 4.113300080000000247e-01 1.008587123400000074e+01
6.256299391999999848e+00 0.000000000000000000e+00 0.000000000000000000e+00 -3.323538587999999905e+00 5.479028033999999714e+00 0.000000000000000000e+00 -1.234143890999999993e+00 6.038529580000000507e-01 1.039045605899999991e+01
6.223657726999999973e+00 0.000000000000000000e+00 0.000000000000000000e+00 -3.080511489000000047e+00 5.367900116999999582e+00 0.000000000000000000e+00 -2.267188820000000105e-01 2.643263319999999972e-01 1.018770695999999987e+01
6.365128677999999596e+00 0.000000000000000000e+00 0.000000000000000000e+00 -3.251044552999999837e+00 5.416885579999999756e+00 0.000000000000000000e+00 -1.452917350999999968e+00 8.708253740000000409e-01 1.030595727100000047e+01
6.293252110000000066e+00 0.000000000000000000e+00 0.000000000000000000e+00 -3.120693731999999887e+00 5.605481144999999721e+00 0.000000000000000000e+00 -4.239078000000000290e-02 -2.355915929999999880e-01 1.056861848600000009e+01
6.166171989000000409e+00 0.000000000000000000e+00 0.000000000000000000e+00 -3.154074690999999930e+00 5.381786441000000032e+00 0.000000000000000000e+00 7.111572500000000463e-02 4.781248280000000017e-01 1.019815106699999951e+01
6.275391618999999643e+00 0.000000000000000000e+00 0.000000000000000000e+00 -3.073968760000000078e+00 5.468983836999999681e+00 0.000000000000000000e+00 5.660400030000000138e-01 -1.061051939999999999e-01 1.066697061300000016e+01
6.267235319000000082e+00 0.000000000000000000e+00 0.000000000000000000e+00 -3.219936082999999893e+00 5.390785229999999650e+00 0.000000000000000000e+00 -2.236370330000000128e-01 6.104989300000000091e-02 1.052583926700000028e+01
6.318531022000000164e+00 0.000000000000000000e+00 0.000000000000000000e+00 -3.130598557999999976e+00 5.416816426999999656e+00 0.000000000000000000e+00 -1.945531920000000137e-01 2.651510819999999824e-01 1.032489288500000058e+01
6.257500743999999671e+00 0.000000000000000000e+00 0.000000000000000000e+00 -2.986132582999999840e+00 5.441082928000000152e+00 0.000000000000000000e+00 -1.272845419000000033e+00 7.617236120000000499e-01 1.096188780099999960e+01
6.315349827000000360e+00 0.000000000000000000e+00 0.000000000000000000e+00 -3.249595155999999818e+00 5.574859284000000414e+00 0.000000000000000000e+00 -2.721577760000000179e-01 1.269498249999999884e-01 1.043445583199999938e+01
6.393974956000000098e+00 0.000000000000000000e+00 0.000000000000000000e+00 -3.370965228000000202e+00 5.639836682000000323e+00 0.000000000000000000e+00 4.394146699999999794e-02 -3.092488290000000029e-01 1.023972419500000086e+01
6.077184874000000292e+00 0.000000000000000000e+00 0.000000000000000000e+00 -2.980168314999999790e+00 5.519973536000000180e+00 0.000000000000000000e+00 -2.637938980000000266e-01 -4.354872599999999871e-01 1.033104485800000027e+01
5.970498615000000342e+00 0.000000000000000000e+00 0.000000000000000000e+00 -3.107559933000000107e+00 5.379277399000000237e+00 0.000000000000000000e+00 -1.732149510000000059e-01 -9.806999149999999776e-01 1.088733707799999983e+01
6.128394031000000020e+00 0.000000000000000000e+00 0.000000000000000000e+00 -3.227975606000000219e+00 5.478783029999999776e+00 0.000000000000000000e+00 -1.967251072000000045e+00 1.345892580999999977e+00 1.008247977999999989e+01
6.054727828999999950e+00 0.000000000000000000e+00 0.000000000000000000e+00 -2.916510305000000081e+00 5.289555224999999972e+00 0.000000000000000000e+00 -1.649220300000000042e-02 -3.598551899999999915e-01 1.061025068400000038e+01
6.363426553000000041e+00 0.000000000000000000e+00 0.000000000000000000e+00 -3.249916262000000167e+00 5.614680400000000127e+00 0.000000000000000000e+00 -3.607071070000000268e-01 5.570885099999999673e-02 1.049313412300000081e+01
6.260951751000000343e+00 0.000000000000000000e+00 0.000000000000000000e+00 -3.289276765999999963e+00 5.399790238999999659e+00 0.000000000000000000e+00 -4.065453709999999887e-01 2.636671780000000020e-01 1.027670722300000072e+01
6.441523160000000026e+00 0.000000000000000000e+00 0.000000000000000000e+00 -3.520091882000000005e+00 5.370373461999999876e+00 0.000000000000000000e+00 -8.533488759999999784e-01 5.563574970000000341e-01 9.984856857000000474e+00
6.109318269000000079e+00 0.000000000000000000e+00 0.000000000000000000e+00 -3.180699912000000129e+00 5.344897496999999831e+00 0.000000000000000000e+00 -1.845613329999999941e-01 9.301472700000000537e-02 1.025634035400000066e+01
6.209356101000000017e+00 0.000000000000000000e+00 0.000000000000000000e+00 -3.083435752999999835e+00 5.340567105999999953e+00 0.000000000000000000e+00 -4.490937649999999781e-01 5.215099850000000092e-01 1.036753868899999986e+01
6.262235070000000015e+00 0.000000000000000000e+00 0.000000000000000000e+00 -3.036795689999999937e+00 5.406995597999999958e+00 0.000000000000000000e+00 5.166373789999999522e-01 1.560789350000000020e-01 1.067349053799999936e+01
6.259914876999999933e+00 0.000000000000000000e+00 0.000000000000000000e+00 -3.326141892999999961e+00 5.414724823000000242e+00 0.000000000000000000e+00 -2.685686250000000053e-01 2.014712449999999933e-01 1.016896501099999917e+01
6.172551968999999694e+00 0.000000000000000000e+00 0.000000000000000000e+00 -3.065914459000000036e+00 5.273462867000000109e+00 0.000000000000000000e+00 4.262336849999999733e-01 -1.401451499999999961e-01 1.066555092299999963e+01
6.271764206000000286e+00 0.000000000000000000e+00 0.000000000000000000e+00 -3.133651340000000118e+00 5.403378005999999623e+00 0.000000000000000000e+00 1.639279090000000105e-01 2.262653010000000020e-01 1.059973767199999983e+01
6.217580790000000412e+00 0.000000000000000000e+00 0.000000000000000000e+00 -3.098249464999999869e+00 5.307886416999999746e+00 0.000000000000000000e+00 -2.693832360000000259e-01 2.586432300000000017e-01 1.010923291599999985e+01
6.159512883999999744e+00 0.000000000000000000e+00 0.000000000000000000e+00 -3.115428688999999807e+00 5.363711849999999615e+00 0.000000000000000000e+00 -2.210023449999999889e-01 -7.867109899999999434e-02 1.093613138699999965e+01
6.306581497999999897e+00 0.000000000000000000e+00 0.000000000000000000e+00 -3.095199100999999953e+00 5.451099627999999697e+00 0.000000000000000000e+00 5.053637200000000301e-02 1.966524789999999911e-01 1.043896434200000023e+01
6.304249611999999559e+00 0.000000000000000000e+00 0.000000000000000000e+00 -3.097276604000000155e+00 5.443183301000000363e+00 0.000000000000000000e+00 9.653729699999999414e-02 4.263735300000000283e-02 1.030376351399999990e+01
6.074773416000000203e+00 0.000000000000000000e+00 0.000000000000000000e+00 -3.047245644999999836e+00 5.342039945999999873e+00 0.000000000000000000e+00 -2.065781790000000007e-01 1.869974650000000016e-01 1.002604810399999913e+01
6.386057612000000105e+00 0.000000000000000000e+00 0.000000000000000000e+00 -3.233957473999999888e+00 5.379502674000000262e+00 0.000000000000000000e+00 -6.259599789999999997e-01 -2.663185820000000259e-01 1.051498443700000074e+01
6.293519020999999825e+00 0.000000000000000000e+00 0.000000000000000000e+00 -3.129612535999999778e+00 5.329230878999999810e+00 0.000000000000000000e+00 -2.340919350000000010e-01 2.589128199999999880e-01 1.017201606299999916e+01
6.423976279999999761e+00 0.000000000000000000e+00 0.000000000000000000e+00 -3.269367137999999784e+00 5.381933970999999595e+00 0.000000000000000000e+00 -9.190175839999999985e-01 4.372642700000000104e-01 1.022004336000000002e+01
6.153001433000000020e+00 0.000000000000000000e+00 0.000000000000000000e+00 -3.174398356999999837e+00 5.473635288999999737e+00 0.000000000000000000e+00 -7.178958300000000403e-02 -5.032426899999999786e-02 1.058310028200000019e+01
6.208438369999999651e+00 0.000000000000000000e+00 0.000000000000000000e+00 -3.196814879000000165e+00 5.357364565000000134e+00 0.000000000000000000e+00 -5.959984609999999794e-01 5.583214189999999855e-01 1.003554573799999972e+01
6.328237633999999723e+00 0.000000000000000000e+00 0.000000000000000000e+00 -3.200382285999999965e+00 5.423530236000000393e+00 0.000000000000000000e+00 5.849849000000000021e-02 3.034890610000000044e-01 1.030615805000000051e+01
6.201268890999999783e+00 0.000000000000000000e+00 0.000000000000000000e+00 -3.108125956999999939e+00 5.395300416000000432e+00 0.000000000000000000e+00 -7.945182500000000370e-02 -3.111929489999999965e-01 1.122980776400000025e+01
6.280517459000000358e+00 0.000000000000000000e+00 0.000000000000000000e+00 -3.204952469000000193e+00 5.408375161999999570e+00 0.000000000000000000e+00 -1.115618314000000000e+00 7.341099330000000478e-01 1.029639980299999991e+01
6.382417841999999730e+00 0.000000000000000000e+00 0.000000000000000000e+00 -3.224027505000000016e+00 5.483186339000000409e+00 0.000000000000000000e+00 -1.948547049999999892e-01 -1.716555999999999985e-02 1.047238199000000058e+01
6.223938700999999796e+00 0.000000000000000000e+00 0.000000000000000000e+00 -3.110692380000000146e+00 5.429115309000000167e+00 0.000000000000000000e+00 1.221202650000000056e-01 5.927098299999999931e-02 1.079971823700000044e+01
6.189035656999999802e+00 0.000000000000000000e+00 0.000000000000000000e+00 -3.078503379999999900e+00 5.467363623999999866e+00 0.000000000000000000e+00 -9.256975000000000620e-03 3.037548930000000258e-01 1.041837552900000041e+01
6.172122084999999814e+00 0.000000000000000000e+00 0.000000000000000000e+00 -3.146096437000000190e+00 5.423706113999999801e+00 0.000000000000000000e+00 -7.654837100000000394e-02 1.159492770000000034e-01 1.024379206499999917e+01
6.213174930000000096e+00 0.000000000000000000e+00 0.000000000000000000e+00 -3.143166904000000095e+00 5.339685187999999805e+00 0.000000000000000000e+00 -2.865223390000000148e-01 -3.821861700000000334e-02 1.046390994799999952e+01
