-2.533735730399999966e+02
-2.577263025999999968e+02
-2.542979464100000087e+02
-2.545342381400000136e+02
-2.549954156000000012e+02
-2.532576045700000122e+02
-2.529478685500000097e+02
-2.544496034599999916e+02
-2.510632907300000056e+02
-2.552416440099999875e+02
-2.546566975099999866e+02
-2.507768752400000096e+02
-2.519932326199999864e+02
-2.518081293399999936e+02
-2.548154889299999866e+02
-2.551667716700000028e+02
-2.514304527799999960e+02
-2.523737977600000022e+02
-2.518905431199999896e+02
-2.513036954400000127e+02
-2.509547202699999957e+02
-2.547129545900000096e+02
-2.544308683399999893e+02
-2.513556848000000059e+02
-2.548933018399999924e+02
-2.532743835299999944e+02
-2.516212034000000131e+02
-2.527938936600000090e+02
-2.549307246299999861e+02
-2.521404709599999876e+02
-2.549328734100000133e+02
-2.534827614499999981e+02
-2.525745186199999921e+02
-2.558061840700000005e+02
-2.540506160600000101e+02
-2.522799755199999936e+02
-2.522187626200000068e+02
-2.543523391800000013e+02
-2.511655256699999939e+02
-2.532796527799999922e+02
-2.537700709499999903e+02
-2.546581720400000108e+02
-2.533464846200000125e+02
-2.526573715400000140e+02
-2.549537727400000051e+02
-2.520393602999999985e+02
-2.521085650500000099e+02
-2.543776143300000001e+02
-2.569905113600000277e+02
-2.524855686900000080e+02
