-4.282025864600000205e+02
-4.264844123999999965e+02
-4.287222685099999921e+02
-4.281884015800000043e+02
-4.288588127300000110e+02
-4.273923135100000081e+02
-4.272615575799999874e+02
-4.261703191999999945e+02
-4.272201182599999925e+02
-4.288171402599999738e+02
-4.269584040999999957e+02
-4.258785672100000284e+02
