1.710090000000000110e+00 8.739000000000000101e-01 4.407429999999999737e+00 1.692499999999999893e+00 9.764800000000000146e-01 9.510600000000000165e+00 1.414999999999999938e-02 3.754239999999999799e+00 4.369530000000000136e+00 1.571899999999999964e-01 3.862890000000000157e+00 9.581920000000000215e+00 4.558679999999999843e+00 7.462400000000000144e-01 4.333510000000000417e+00 4.799920000000000186e+00 9.913600000000000190e-01 9.610780000000000101e+00 3.186179999999999790e+00 3.601690000000000058e+00 4.524180000000000312e+00 3.193639999999999812e+00 3.818140000000000089e+00 9.585860000000000269e+00 6.750000000000000444e-02 1.848950000000000093e+00 1.833490000000000064e+00 3.253999999999999948e-02 1.879660000000000108e+00 7.687039999999999651e+00 -1.495309999999999917e+00 4.597559999999999647e+00 1.862759999999999971e+00 -1.602810000000000068e+00 4.566130000000000244e+00 7.058150000000000368e+00 3.203469999999999818e+00 1.905189999999999939e+00 2.036179999999999879e+00 3.237309999999999910e+00 1.818219999999999947e+00 7.121439999999999770e+00 1.607720000000000038e+00 4.615420000000000300e+00 1.923480000000000079e+00 1.698990000000000000e+00 4.587119999999999642e+00 7.122320000000000206e+00 1.538629999999999942e+00 1.020369999999999999e+00 2.506369999999999987e+00 1.617680000000000007e+00 8.677099999999999813e-01 7.583940000000000126e+00 8.359999999999999376e-02 3.632909999999999862e+00 2.465559999999999974e+00 -2.332000000000000045e-02 3.762399999999999967e+00 7.572940000000000005e+00 4.705940000000000012e+00 9.718799999999999661e-01 2.513710000000000111e+00 4.783079999999999998e+00 9.744800000000000129e-01 7.528900000000000148e+00 3.279250000000000220e+00 3.703899999999999970e+00 2.447560000000000180e+00 3.102320000000000189e+00 3.659120000000000150e+00 7.674269999999999925e+00 1.002799999999999941e-01 1.940989999999999993e+00 9.861190000000000566e+00 -1.564610000000000056e+00 4.426750000000000185e+00 4.959850000000000314e+00 -1.512359999999999927e+00 4.535090000000000288e+00 1.267000000000000071e-02 3.162459999999999827e+00 1.897899999999999920e+00 5.025730000000000253e+00 3.127819999999999823e+00 1.775230000000000086e+00 3.024999999999999911e-02 1.587800000000000100e+00 4.518270000000000231e+00 5.044270000000000032e+00 1.554200000000000026e+00 4.604370000000000296e+00 3.917000000000000343e-02
1.839139999999999997e+00 8.178699999999999859e-01 4.299129999999999896e+00 1.567649999999999988e+00 1.037320000000000020e+00 9.347720000000000695e+00 1.265100000000000113e-01 3.753810000000000091e+00 4.429920000000000080e+00 4.639000000000000068e-02 3.748380000000000045e+00 9.310019999999999740e+00 4.557280000000000442e+00 7.175899999999999501e-01 4.431619999999999671e+00 4.745800000000000018e+00 1.049230000000000107e+00 9.260170000000000456e+00 3.183710000000000040e+00 3.615439999999999987e+00 4.092800000000000438e+00 3.098529999999999784e+00 3.795990000000000197e+00 9.369220000000000326e+00 -7.239999999999999908e-03 1.835269999999999957e+00 2.053199999999999914e+00 8.204000000000000181e-02 1.960339999999999971e+00 6.913610000000000255e+00 -1.548159999999999981e+00 4.459299999999999820e+00 1.853660000000000085e+00 -1.669070000000000054e+00 4.618949999999999889e+00 6.880379999999999718e+00 2.998180000000000067e+00 1.778550000000000075e+00 1.803509999999999946e+00 3.156120000000000037e+00 1.896009999999999973e+00 6.948559999999999626e+00 1.471789999999999932e+00 4.517640000000000100e+00 1.852170000000000094e+00 1.671669999999999989e+00 4.576439999999999841e+00 6.916220000000000034e+00 1.432160000000000100e+00 9.182500000000000107e-01 2.466969999999999885e+00 1.620120000000000005e+00 1.089380000000000015e+00 7.473830000000000418e+00 2.204000000000000056e-02 3.560509999999999842e+00 2.598939999999999806e+00 6.310999999999999943e-02 3.722620000000000040e+00 7.347170000000000201e+00 4.568970000000000198e+00 9.407600000000000406e-01 2.607060000000000155e+00 4.756380000000000052e+00 1.036079999999999890e+00 7.424280000000000435e+00 3.010609999999999786e+00 3.588290000000000202e+00 2.354099999999999859e+00 3.098739999999999828e+00 3.703359999999999985e+00 7.567040000000000433e+00 9.933000000000000163e-02 1.842549999999999910e+00 1.000000000000000048e-04 -1.572160000000000002e+00 4.519040000000000390e+00 5.109479999999999578e+00 -1.510199999999999987e+00 4.467699999999999783e+00 2.728999999999999829e-02 3.171390000000000153e+00 1.949670000000000014e+00 4.983559999999999768e+00 3.112690000000000179e+00 1.958839999999999915e+00 9.849370000000000402e+00 1.699759999999999938e+00 4.422740000000000116e+00 5.079460000000000086e+00 1.497859999999999969e+00 4.681589999999999918e+00 9.907450000000000756e+00
1.643150000000000110e+00 7.319600000000000550e-01 4.300690000000000346e+00 1.625539999999999985e+00 7.176900000000000501e-01 9.198660000000000281e+00 6.419999999999999318e-02 3.613519999999999843e+00 4.254010000000000069e+00 9.983999999999999819e-02 3.383459999999999912e+00 9.132699999999999818e+00 4.477149999999999963e+00 7.871700000000000363e-01 4.321550000000000225e+00 4.534589999999999677e+00 8.213399999999999590e-01 9.106030000000000513e+00 3.137599999999999945e+00 3.416409999999999947e+00 4.381000000000000227e+00 3.127349999999999852e+00 3.458590000000000053e+00 8.973050000000000637e+00 -6.618999999999999884e-02 1.636710000000000109e+00 1.790659999999999918e+00 -5.188999999999999863e-02 1.639489999999999892e+00 6.902359999999999829e+00 -1.566419999999999924e+00 4.217229999999999812e+00 1.767479999999999940e+00 -1.400320000000000009e+00 4.425410000000000288e+00 6.702609999999999957e+00 2.955789999999999917e+00 1.761600000000000055e+00 1.887129999999999974e+00 2.988919999999999799e+00 1.634870000000000045e+00 6.729949999999999655e+00 1.473740000000000050e+00 4.261540000000000106e+00 1.797900000000000054e+00 1.465359999999999996e+00 4.287609999999999921e+00 6.717459999999999987e+00 1.468010000000000037e+00 8.487900000000000444e-01 2.519519999999999982e+00 1.473000000000000087e+00 8.447400000000000464e-01 7.269350000000000200e+00 -1.703000000000000000e-02 3.362950000000000106e+00 2.360850000000000115e+00 -6.975000000000000644e-02 3.444539999999999935e+00 7.240109999999999602e+00 4.457569999999999588e+00 8.185900000000000398e-01 2.460500000000000131e+00 4.469520000000000159e+00 8.646899999999999586e-01 7.254059999999999953e+00 2.948630000000000084e+00 3.425629999999999953e+00 2.560140000000000082e+00 3.000490000000000101e+00 3.457380000000000120e+00 7.214940000000000353e+00 -6.718999999999999972e-02 1.635850000000000026e+00 9.641299999999999315e+00 -1.519619999999999971e+00 4.278509999999999813e+00 4.978069999999999773e+00 -1.476709999999999967e+00 4.205919999999999881e+00 9.698880000000000834e+00 3.088709999999999845e+00 1.667769999999999975e+00 4.980369999999999742e+00 3.082689999999999930e+00 1.789630000000000054e+00 2.641999999999999904e-02 1.587420000000000053e+00 4.205869999999999997e+00 4.957609999999999850e+00 1.465829999999999966e+00 4.355220000000000091e+00 9.694660000000000721e+00
1.693219999999999947e+00 7.890899999999999581e-01 4.310170000000000279e+00 1.617040000000000033e+00 9.716200000000000392e-01 9.598219999999999530e+00 -7.892000000000000404e-02 3.832199999999999829e+00 4.267280000000000406e+00 1.437900000000000011e-01 3.865359999999999907e+00 9.441300000000000026e+00 4.488339999999999996e+00 9.255499999999999838e-01 4.320330000000000226e+00 4.907650000000000290e+00 9.939299999999999802e-01 9.463309999999999889e+00 3.124760000000000204e+00 3.687390000000000168e+00 4.429129999999999789e+00 3.195650000000000102e+00 3.830299999999999816e+00 9.414360000000000284e+00 -1.157000000000000042e-02 1.850819999999999910e+00 1.856540000000000079e+00 7.503999999999999559e-02 1.995230000000000059e+00 7.429249999999999687e+00 -1.488189999999999902e+00 4.612639999999999851e+00 1.845129999999999937e+00 -1.520680000000000032e+00 4.608550000000000146e+00 7.053639999999999688e+00 3.343140000000000001e+00 1.880409999999999915e+00 1.854729999999999990e+00 3.245730000000000004e+00 1.816610000000000058e+00 7.083400000000000141e+00 1.600410000000000110e+00 4.599429999999999907e+00 1.925159999999999982e+00 1.662230000000000096e+00 4.708079999999999821e+00 6.940839999999999677e+00 1.620649999999999924e+00 8.638700000000000268e-01 2.414289999999999825e+00 1.594249999999999945e+00 9.554300000000000015e-01 7.545270000000000366e+00 -4.800999999999999712e-02 3.551439999999999930e+00 2.374940000000000051e+00 8.672000000000000541e-02 3.778500000000000192e+00 7.508779999999999788e+00 4.953359999999999985e+00 9.458400000000000141e-01 2.466349999999999820e+00 4.933300000000000018e+00 1.002990000000000048e+00 7.511910000000000309e+00 3.250030000000000197e+00 3.713159999999999794e+00 2.522899999999999920e+00 3.199390000000000178e+00 3.775170000000000137e+00 7.522899999999999920e+00 -1.548000000000000070e-02 1.965000000000000080e+00 9.895939999999999515e+00 -1.652479999999999949e+00 4.555480000000000196e+00 5.007659999999999556e+00 -1.650479999999999947e+00 4.542749999999999844e+00 9.948380000000000223e+00 3.027260000000000062e+00 1.841639999999999944e+00 5.030660000000000132e+00 3.240149999999999864e+00 1.852670000000000039e+00 1.001412000000000013e+01 1.585700000000000109e+00 4.665300000000000225e+00 4.993549999999999933e+00 1.596189999999999998e+00 4.609729999999999883e+00 1.030000000000000100e-03
1.880589999999999984e+00 8.925999999999999490e-01 4.384710000000000107e+00 1.692770000000000108e+00 9.438100000000000378e-01 9.504979999999999762e+00 7.606999999999999873e-02 3.916589999999999794e+00 4.362540000000000084e+00 -4.014000000000000207e-02 3.714719999999999800e+00 9.456089999999999662e+00 4.564729999999999954e+00 7.411100000000000465e-01 4.438959999999999795e+00 4.722240000000000215e+00 9.730400000000000160e-01 9.537269999999999470e+00 3.161700000000000177e+00 3.749789999999999957e+00 4.419469999999999565e+00 3.109160000000000146e+00 3.665820000000000078e+00 9.505660000000000664e+00 -7.700000000000000247e-03 1.834489999999999954e+00 1.946069999999999967e+00 8.970000000000000542e-03 1.885420000000000096e+00 7.387690000000000090e+00 -1.531649999999999956e+00 4.674540000000000362e+00 1.942369999999999930e+00 -1.568230000000000013e+00 4.694580000000000197e+00 6.985769999999999591e+00 3.119559999999999889e+00 1.927669999999999995e+00 1.874509999999999899e+00 3.216169999999999973e+00 1.907350000000000101e+00 7.013209999999999944e+00 1.579700000000000104e+00 4.575580000000000425e+00 1.928679999999999950e+00 1.573499999999999899e+00 4.568889999999999674e+00 6.987560000000000215e+00 1.571690000000000031e+00 1.005190000000000028e+00 2.600800000000000001e+00 1.614919999999999911e+00 9.755000000000000338e-01 7.440249999999999808e+00 -4.202999999999999792e-02 3.641709999999999781e+00 2.532799999999999940e+00 3.720000000000000216e-03 3.750669999999999948e+00 7.516370000000000218e+00 4.715930000000000177e+00 9.118800000000000239e-01 2.509830000000000005e+00 4.716289999999999871e+00 9.464000000000000190e-01 7.575450000000000017e+00 3.152260000000000062e+00 3.688140000000000196e+00 2.480879999999999974e+00 3.188769999999999882e+00 3.687040000000000095e+00 7.535980000000000345e+00 -2.336999999999999841e-02 1.936590000000000034e+00 9.968289999999999651e+00 -1.582359999999999989e+00 4.564659999999999940e+00 5.081019999999999648e+00 -1.580810000000000048e+00 4.644169999999999909e+00 6.720000000000000279e-03 3.303040000000000198e+00 1.898970000000000047e+00 5.059700000000000308e+00 3.185270000000000046e+00 1.874370000000000092e+00 1.008456999999999937e+01 1.701489999999999947e+00 4.552940000000000431e+00 5.023920000000000385e+00 1.659710000000000019e+00 4.683040000000000092e+00 1.007384000000000057e+01
1.691999999999999948e+00 8.174299999999999899e-01 4.374789999999999957e+00 1.584049999999999958e+00 8.983200000000000074e-01 9.418400000000000105e+00 6.709999999999999819e-03 3.753400000000000070e+00 4.358970000000000233e+00 -4.349999999999999700e-03 3.620239999999999903e+00 9.416510000000000602e+00 4.535689999999999777e+00 8.322699999999999543e-01 4.358389999999999986e+00 4.645340000000000025e+00 9.118899999999999784e-01 9.435930000000000817e+00 3.129779999999999784e+00 3.578079999999999927e+00 4.393550000000000288e+00 3.119909999999999961e+00 3.619400000000000173e+00 9.470269999999999300e+00 9.549999999999999462e-03 1.785279999999999978e+00 1.837309999999999999e+00 -4.116999999999999826e-02 1.822559999999999958e+00 7.204500000000000348e+00 -1.523430000000000062e+00 4.515310000000000379e+00 1.882540000000000102e+00 -1.558170000000000055e+00 4.468980000000000175e+00 6.939510000000000289e+00 3.137469999999999981e+00 1.793779999999999930e+00 1.895280000000000076e+00 3.109410000000000007e+00 1.804450000000000109e+00 6.924610000000000376e+00 1.554910000000000014e+00 4.485870000000000246e+00 1.883569999999999967e+00 1.559960000000000013e+00 4.486530000000000129e+00 6.935229999999999784e+00 1.543830000000000036e+00 9.218100000000000183e-01 2.472869999999999902e+00 1.560850000000000071e+00 8.997100000000000097e-01 7.510650000000000048e+00 4.329999999999999648e-03 3.559619999999999784e+00 2.463480000000000114e+00 -3.700000000000000164e-03 3.652740000000000098e+00 7.513060000000000294e+00 4.697230000000000238e+00 9.138699999999999601e-01 2.459999999999999964e+00 4.641350000000000087e+00 9.186600000000000321e-01 7.527110000000000412e+00 3.135060000000000180e+00 3.604880000000000084e+00 2.479319999999999968e+00 3.111089999999999911e+00 3.612899999999999778e+00 7.552340000000000053e+00 6.930000000000000396e-03 1.804389999999999938e+00 9.941349999999999909e+00 -1.540780000000000038e+00 4.481060000000000265e+00 5.005469999999999864e+00 -1.528219999999999912e+00 4.492250000000000298e+00 1.001702000000000048e+01 3.117500000000000160e+00 1.824259999999999993e+00 5.031399999999999650e+00 3.111470000000000180e+00 1.770850000000000035e+00 1.021999999999999992e-02 1.585520000000000040e+00 4.472710000000000186e+00 5.014610000000000234e+00 1.549350000000000005e+00 4.475600000000000023e+00 5.570000000000000298e-03
1.424469999999999903e+00 4.811400000000000121e-01 4.376780000000000115e+00 1.397759999999999891e+00 5.735900000000000443e-01 9.339219999999999189e+00 -1.634000000000000036e-02 3.375879999999999992e+00 4.255589999999999762e+00 -1.587999999999999967e-01 3.349800000000000111e+00 9.291639999999999233e+00 4.687940000000000218e+00 8.548200000000000243e-01 4.170679999999999943e+00 4.399000000000000021e+00 6.748300000000000409e-01 9.354969999999999786e+00 2.835900000000000087e+00 3.309670000000000112e+00 4.354989999999999917e+00 2.742230000000000167e+00 3.297800000000000065e+00 9.219179999999999708e+00 -2.151099999999999957e-01 1.747509999999999897e+00 1.768510000000000026e+00 1.362000000000000016e-02 1.802519999999999900e+00 6.984639999999999738e+00 -1.773200000000000109e+00 4.333459999999999646e+00 1.898190000000000044e+00 -1.646120000000000028e+00 4.200529999999999653e+00 6.761709999999999887e+00 2.899929999999999897e+00 1.447100000000000053e+00 1.853869999999999907e+00 3.120089999999999808e+00 1.518790000000000084e+00 6.983979999999999855e+00 1.274950000000000028e+00 4.187079999999999913e+00 1.973500000000000032e+00 1.601129999999999942e+00 4.355959999999999610e+00 6.885989999999999611e+00 1.267649999999999944e+00 7.639599999999999724e-01 2.467200000000000060e+00 1.434639999999999915e+00 6.605199999999999960e-01 7.400520000000000209e+00 -2.841400000000000037e-01 3.433440000000000047e+00 2.394179999999999975e+00 3.536000000000000254e-02 3.637880000000000003e+00 7.299089999999999634e+00 4.537090000000000067e+00 7.642200000000000104e-01 2.379830000000000112e+00 4.613269999999999982e+00 6.988499999999999712e-01 7.482920000000000016e+00 2.804139999999999855e+00 3.316209999999999880e+00 2.386179999999999968e+00 3.044490000000000141e+00 3.308660000000000156e+00 7.354199999999999626e+00 1.061700000000000005e-01 1.840810000000000057e+00 1.282999999999999974e-01 -1.677629999999999955e+00 4.005560000000000009e+00 4.787880000000000358e+00 -1.825530000000000097e+00 4.061410000000000409e+00 9.724080000000000723e+00 2.962270000000000181e+00 1.571609999999999951e+00 4.964780000000000193e+00 3.014409999999999812e+00 1.843229999999999924e+00 1.285499999999999976e-01 1.415329999999999977e+00 4.503779999999999895e+00 4.905820000000000292e+00 1.407110000000000083e+00 4.550180000000000113e+00 5.512000000000000233e-02
1.700460000000000083e+00 7.880899999999999572e-01 4.390100000000000335e+00 1.539250000000000007e+00 8.546300000000000008e-01 9.429990000000000094e+00 2.699000000000000010e-02 3.736340000000000217e+00 4.386090000000000266e+00 -1.822000000000000008e-02 3.564470000000000027e+00 9.415559999999999263e+00 4.578570000000000029e+00 8.342899999999999761e-01 4.399259999999999948e+00 4.648349999999999760e+00 8.682600000000000318e-01 9.421350000000000335e+00 3.120369999999999866e+00 3.597609999999999975e+00 4.414909999999999890e+00 3.091930000000000067e+00 3.586969999999999992e+00 9.453239999999999199e+00 1.629999999999999852e-02 1.814210000000000100e+00 1.872440000000000104e+00 -1.874999999999999931e-02 1.764860000000000095e+00 7.177690000000000126e+00 -1.544620000000000104e+00 4.525389999999999802e+00 1.885340000000000016e+00 -1.594629999999999992e+00 4.460589999999999833e+00 6.952200000000000379e+00 3.122669999999999835e+00 1.806959999999999900e+00 1.881879999999999997e+00 3.119439999999999991e+00 1.736539999999999973e+00 6.930880000000000152e+00 1.550769999999999982e+00 4.518659999999999677e+00 1.868090000000000028e+00 1.529509999999999925e+00 4.466289999999999871e+00 6.947479999999999656e+00 1.547800000000000065e+00 9.147399999999999975e-01 2.499400000000000066e+00 1.558559999999999945e+00 8.514000000000000457e-01 7.493240000000000123e+00 2.890000000000000208e-03 3.579029999999999934e+00 2.498050000000000104e+00 -1.545000000000000019e-02 3.570269999999999833e+00 7.473209999999999908e+00 4.721529999999999561e+00 9.140500000000000291e-01 2.484579999999999789e+00 4.649740000000000428e+00 8.630299999999999638e-01 7.507349999999999746e+00 3.130079999999999973e+00 3.605679999999999996e+00 2.480339999999999989e+00 3.101140000000000008e+00 3.569510000000000183e+00 7.516350000000000087e+00 -4.277000000000000246e-02 1.755179999999999962e+00 9.964689999999999159e+00 -1.571339999999999959e+00 4.444250000000000256e+00 5.032549999999999635e+00 -1.556570000000000009e+00 4.506560000000000343e+00 7.200000000000000453e-04 3.104340000000000099e+00 1.798300000000000010e+00 5.023049999999999571e+00 3.104579999999999895e+00 1.794019999999999948e+00 4.420000000000000318e-03 1.578650000000000109e+00 4.475789999999999935e+00 5.044859999999999900e+00 1.551590000000000025e+00 4.480500000000000149e+00 1.001945000000000086e+01
1.816109999999999891e+00 7.660900000000000487e-01 4.500530000000000364e+00 1.697920000000000096e+00 1.011279999999999957e+00 9.535410000000000608e+00 1.213899999999999979e-01 3.850709999999999855e+00 4.485809999999999853e+00 1.246099999999999985e-01 3.784909999999999997e+00 9.430389999999999162e+00 4.685150000000000148e+00 9.125499999999999723e-01 4.486570000000000391e+00 4.856180000000000163e+00 9.119699999999999473e-01 9.454969999999999430e+00 3.275290000000000035e+00 3.621509999999999785e+00 4.471049999999999969e+00 3.288139999999999841e+00 3.750849999999999795e+00 9.589109999999999800e+00 -7.208000000000000518e-02 1.864020000000000010e+00 1.934409999999999963e+00 1.342000000000000137e-01 1.865029999999999966e+00 7.260589999999999655e+00 -1.553700000000000081e+00 4.642170000000000130e+00 1.937019999999999964e+00 -1.580770000000000008e+00 4.636529999999999596e+00 7.030490000000000350e+00 3.177189999999999959e+00 1.880419999999999980e+00 1.937049999999999939e+00 3.080960000000000143e+00 1.971680000000000099e+00 7.046940000000000204e+00 1.569800000000000084e+00 4.617890000000000050e+00 1.921170000000000044e+00 1.638090000000000046e+00 4.581050000000000288e+00 6.922150000000000247e+00 1.476580000000000004e+00 1.049879999999999924e+00 2.486569999999999947e+00 1.676900000000000057e+00 1.045500000000000096e+00 7.559470000000000134e+00 1.348000000000000066e-02 3.709970000000000212e+00 2.529170000000000140e+00 5.428000000000000186e-02 3.800300000000000011e+00 7.426079999999999792e+00 4.788439999999999586e+00 9.438199999999999923e-01 2.587070000000000203e+00 4.727970000000000006e+00 1.043830000000000036e+00 7.428679999999999950e+00 3.176579999999999959e+00 3.675879999999999814e+00 2.537009999999999987e+00 3.130399999999999849e+00 3.699759999999999938e+00 7.649490000000000123e+00 1.824999999999999886e-02 1.822200000000000042e+00 1.629999999999999852e-02 -1.533090000000000064e+00 4.565979999999999706e+00 5.168110000000000426e+00 -1.437680000000000069e+00 4.682850000000000179e+00 1.003209999999999980e+01 3.193839999999999790e+00 1.856430000000000025e+00 4.980540000000000411e+00 3.290160000000000196e+00 1.918160000000000087e+00 9.980829999999999202e+00 1.756690000000000085e+00 4.584670000000000023e+00 5.004730000000000345e+00 1.711470000000000047e+00 4.593079999999999607e+00 1.008164000000000016e+01
1.737719999999999931e+00 8.568200000000000260e-01 4.291439999999999699e+00 1.657219999999999915e+00 7.942500000000000115e-01 9.552599999999999980e+00 -6.110999999999999766e-02 3.833330000000000126e+00 4.261800000000000033e+00 5.573999999999999788e-02 3.757120000000000015e+00 9.677179999999999893e+00 4.548499999999999766e+00 8.518900000000000361e-01 4.369530000000000136e+00 4.653100000000000236e+00 8.267600000000000504e-01 9.688980000000000814e+00 3.110189999999999788e+00 3.710080000000000044e+00 4.626260000000000261e+00 3.153300000000000214e+00 3.625269999999999992e+00 9.505959999999999965e+00 5.102999999999999897e-02 1.872449999999999948e+00 1.712599999999999900e+00 1.952999999999999875e-02 1.798210000000000086e+00 7.451660000000000394e+00 -1.608549999999999924e+00 4.560780000000000278e+00 1.970020000000000104e+00 -1.518469999999999986e+00 4.549319999999999808e+00 7.062339999999999840e+00 3.163320000000000132e+00 1.913640000000000008e+00 1.879979999999999984e+00 3.193060000000000009e+00 1.823180000000000023e+00 6.907079999999999664e+00 1.631280000000000063e+00 4.559249999999999581e+00 1.967119999999999980e+00 1.629350000000000076e+00 4.591260000000000119e+00 7.013340000000000352e+00 1.608680000000000110e+00 9.494000000000000217e-01 2.496360000000000134e+00 1.574109999999999898e+00 8.143399999999999528e-01 7.540420000000000122e+00 4.071999999999999925e-02 3.642319999999999780e+00 2.297480000000000189e+00 9.719999999999999474e-03 3.801849999999999952e+00 7.714080000000000048e+00 4.813139999999999752e+00 9.434000000000000163e-01 2.471280000000000143e+00 4.563209999999999766e+00 8.039600000000000080e-01 7.788359999999999950e+00 3.138220000000000010e+00 3.701449999999999907e+00 2.542889999999999873e+00 3.265320000000000000e+00 3.576789999999999914e+00 7.435279999999999667e+00 -3.447999999999999676e-02 1.808910000000000018e+00 9.968130000000000379e+00 -1.595250000000000057e+00 4.563729999999999620e+00 5.006689999999999863e+00 -1.608870000000000022e+00 4.472769999999999690e+00 6.194999999999999812e-02 3.135590000000000099e+00 1.868049999999999988e+00 5.002209999999999823e+00 3.111639999999999961e+00 1.867620000000000058e+00 1.006863000000000063e+01 1.567180000000000017e+00 4.525579999999999714e+00 5.069860000000000255e+00 1.654020000000000046e+00 4.526229999999999976e+00 9.709999999999999881e-03
1.808249999999999913e+00 7.854200000000000070e-01 4.355290000000000106e+00 1.564889999999999892e+00 7.559900000000000508e-01 9.590389999999999304e+00 1.447400000000000075e-01 4.003519999999999968e+00 4.351200000000000401e+00 3.991999999999999715e-02 3.651380000000000070e+00 9.610879999999999868e+00 4.447960000000000136e+00 7.796199999999999797e-01 4.361629999999999896e+00 4.816150000000000375e+00 7.621200000000000196e-01 9.516859999999999431e+00 3.184810000000000141e+00 3.741400000000000059e+00 4.532320000000000348e+00 3.170970000000000066e+00 3.603260000000000129e+00 9.478970000000000340e+00 -5.410000000000000225e-02 1.844289999999999985e+00 2.027909999999999879e+00 2.449000000000000135e-02 1.781949999999999923e+00 7.361679999999999779e+00 -1.602459999999999996e+00 4.512069999999999581e+00 1.896109999999999962e+00 -1.580130000000000035e+00 4.466350000000000264e+00 7.035300000000000331e+00 3.172670000000000101e+00 1.903780000000000028e+00 1.830200000000000049e+00 3.140719999999999956e+00 1.865390000000000104e+00 7.067319999999999602e+00 1.473680000000000101e+00 4.584800000000000431e+00 1.874169999999999892e+00 1.522890000000000077e+00 4.614589999999999748e+00 7.002959999999999852e+00 1.626929999999999987e+00 8.291300000000000336e-01 2.472290000000000099e+00 1.548380000000000090e+00 7.999500000000000499e-01 7.658409999999999940e+00 2.999999999999999737e-04 3.683390000000000164e+00 2.440560000000000063e+00 2.358000000000000027e-02 3.686030000000000140e+00 7.679479999999999862e+00 4.601679999999999993e+00 8.709999999999999964e-01 2.400339999999999918e+00 4.776810000000000223e+00 9.099099999999999966e-01 7.520579999999999821e+00 3.239279999999999937e+00 3.671380000000000088e+00 2.485669999999999824e+00 3.213589999999999947e+00 3.663889999999999869e+00 7.559890000000000221e+00 -6.898999999999999577e-02 1.783079999999999998e+00 5.949999999999999734e-02 -1.531700000000000061e+00 4.482759999999999856e+00 5.096230000000000260e+00 -1.612589999999999968e+00 4.517540000000000333e+00 1.006395999999999979e+01 3.111079999999999846e+00 1.916619999999999990e+00 5.134750000000000369e+00 3.085480000000000000e+00 1.815090000000000092e+00 1.009613000000000049e+01 1.685529999999999973e+00 4.737689999999999735e+00 5.124410000000000132e+00 1.600570000000000048e+00 4.590609999999999857e+00 2.969999999999999984e-03
1.722509999999999986e+00 6.372200000000000086e-01 4.255119999999999791e+00 1.371099999999999985e+00 6.861699999999999466e-01 9.288990000000000080e+00 -7.112999999999999878e-02 3.558590000000000142e+00 4.254990000000000272e+00 -1.697099999999999997e-01 3.389400000000000190e+00 9.407560000000000144e+00 4.557400000000000340e+00 6.954000000000000181e-01 4.399200000000000443e+00 4.355319999999999858e+00 7.492100000000000426e-01 9.283530000000000726e+00 3.007470000000000088e+00 3.367160000000000153e+00 4.333029999999999937e+00 2.986330000000000151e+00 3.426810000000000134e+00 9.252359999999999474e+00 -1.530100000000000071e-01 1.790559999999999929e+00 2.041150000000000020e+00 -1.542300000000000060e-01 1.662560000000000038e+00 6.955639999999999823e+00 -1.691410000000000080e+00 4.443380000000000329e+00 1.837380000000000013e+00 -1.514420000000000099e+00 4.203240000000000087e+00 6.742709999999999759e+00 3.015150000000000219e+00 1.768089999999999939e+00 1.759330000000000060e+00 3.043390000000000040e+00 1.564519999999999911e+00 6.800900000000000389e+00 1.413929999999999909e+00 4.472409999999999997e+00 1.832640000000000047e+00 1.479049999999999976e+00 4.269389999999999574e+00 6.878730000000000011e+00 1.491379999999999928e+00 8.922299999999999676e-01 2.451029999999999820e+00 1.441230000000000011e+00 6.680199999999999472e-01 7.302740000000000009e+00 -1.551299999999999901e-01 3.557459999999999845e+00 2.391750000000000043e+00 -3.038000000000000075e-02 3.376990000000000158e+00 7.376070000000000348e+00 4.471809999999999619e+00 8.874900000000000011e-01 2.493500000000000050e+00 4.502930000000000099e+00 7.739500000000000268e-01 7.503980000000000317e+00 2.895109999999999850e+00 3.543930000000000025e+00 2.533279999999999976e+00 3.071289999999999853e+00 3.278210000000000068e+00 7.368360000000000021e+00 -1.657800000000000107e-01 1.637529999999999930e+00 9.818419999999999703e+00 -1.504950000000000010e+00 4.259310000000000151e+00 5.037029999999999674e+00 -1.590410000000000101e+00 4.408599999999999852e+00 8.451999999999999791e-02 3.164950000000000152e+00 1.581830000000000069e+00 5.010839999999999961e+00 2.887109999999999843e+00 1.632190000000000030e+00 9.859329999999999927e+00 1.477279999999999927e+00 4.223239999999999661e+00 5.072549999999999670e+00 1.474159999999999915e+00 4.461170000000000080e+00 4.365999999999999742e-02