-2.455193923500000039e+02
-2.461215900500000089e+02
-2.450705048599999998e+02
-2.453034283400000106e+02
-2.463447683599999891e+02
-2.483210178699999915e+02
-2.429988237100000106e+02
-2.482196674099999996e+02
-2.459537277100000097e+02
-2.452610403099999985e+02
-2.460056341000000089e+02
-2.459550675099999921e+02
-2.459659475199999861e+02
-2.483236441800000023e+02
-2.464444997100000023e+02
-2.454828507000000002e+02
-2.440747778999999866e+02
-2.464269167900000070e+02
-2.439086845100000005e+02
-2.457768865799999958e+02
-2.452023312700000020e+02
-2.458296485600000096e+02
-2.484249432299999967e+02
-2.480732804699999861e+02
-2.471753196200000104e+02
-2.480897627600000135e+02
-2.438446596500000112e+02
-2.482878539300000114e+02
-2.425556819399999995e+02
-2.480775291699999912e+02
-2.430689275500000122e+02
-2.481654617499999915e+02
-2.411382749400000023e+02
-2.484119121200000109e+02
-2.446439110000000028e+02
-2.447337497800000108e+02
-2.450836955599999953e+02
-2.481232786399999952e+02
-2.434610141899999860e+02
-2.466464054200000078e+02
-2.481272876900000028e+02
-2.458015952199999958e+02
-2.461910853599999882e+02
-2.483805927600000132e+02
-2.459194551299999887e+02
-2.458959747899999968e+02
-2.469858639100000062e+02
-2.451750369899999953e+02
-2.445184559500000034e+02
-2.430685096199999862e+02
