6.229015064000000379e+00 0.000000000000000000e+00 0.000000000000000000e+00 -3.115264821999999878e+00 5.355453926000000031e+00 0.000000000000000000e+00 -1.743337789999999943e-01 -2.129890889999999926e-01 9.823349564000000811e+00
6.166808687999999705e+00 0.000000000000000000e+00 0.000000000000000000e+00 -3.071199580000000040e+00 5.356947619999999688e+00 0.000000000000000000e+00 -8.981355999999999368e-03 4.129302800000000245e-02 9.908790791999999570e+00
6.298755288999999813e+00 0.000000000000000000e+00 0.000000000000000000e+00 -3.158604489000000015e+00 5.490499529000000045e+00 0.000000000000000000e+00 9.137265999999999444e-02 2.087096380000000029e-01 1.000681565500000048e+01
6.204882139000000407e+00 0.000000000000000000e+00 0.000000000000000000e+00 -3.166411456000000069e+00 5.431411762999999837e+00 0.000000000000000000e+00 6.148187599999999781e-02 2.272067779999999981e-01 9.926689859999999754e+00
6.232951284000000314e+00 0.000000000000000000e+00 0.000000000000000000e+00 -3.107098847000000053e+00 5.364848918999999938e+00 0.000000000000000000e+00 -6.268977500000000314e-02 4.758803200000000233e-02 9.933652093999999266e+00
6.277352925999999833e+00 0.000000000000000000e+00 0.000000000000000000e+00 -3.235330456999999882e+00 5.434645761999999714e+00 0.000000000000000000e+00 7.612606000000000060e-03 2.049086780000000108e-01 1.003163145699999959e+01
6.137530858999999950e+00 0.000000000000000000e+00 0.000000000000000000e+00 -3.033510578000000013e+00 5.311705239000000134e+00 0.000000000000000000e+00 1.583154399999999948e-02 -1.118744359999999938e-01 1.014078451700000016e+01
6.156862364000000198e+00 0.000000000000000000e+00 0.000000000000000000e+00 -3.108005357000000135e+00 5.315558251999999761e+00 0.000000000000000000e+00 -2.923384099999999999e-02 -3.782270900000000297e-02 9.938196423000000834e+00
6.177717496999999724e+00 0.000000000000000000e+00 0.000000000000000000e+00 -3.080582601999999781e+00 5.392425657000000427e+00 0.000000000000000000e+00 8.509619899999999737e-02 4.003688899999999912e-02 9.958065689999999748e+00
6.235849169999999830e+00 0.000000000000000000e+00 0.000000000000000000e+00 -3.148505241000000066e+00 5.413749474000000284e+00 0.000000000000000000e+00 1.009223800000000060e-01 1.815596859999999979e-01 1.006842339700000011e+01
6.290772850999999832e+00 0.000000000000000000e+00 0.000000000000000000e+00 -3.144226564999999862e+00 5.416901085000000116e+00 0.000000000000000000e+00 -2.686233999999999844e-02 -9.533488599999999369e-02 1.005092494800000047e+01
6.281124149000000045e+00 0.000000000000000000e+00 0.000000000000000000e+00 -3.109555685000000125e+00 5.516474213000000404e+00 0.000000000000000000e+00 3.264179500000000123e-02 -6.129907000000000411e-03 1.006795183400000049e+01
6.267932108000000113e+00 0.000000000000000000e+00 0.000000000000000000e+00 -3.033691483000000133e+00 5.447882302000000010e+00 0.000000000000000000e+00 -7.366744599999999754e-02 -2.466092300000000126e-01 1.007062254899999942e+01
6.165898007000000014e+00 0.000000000000000000e+00 0.000000000000000000e+00 -3.104324148999999977e+00 5.360301401000000077e+00 0.000000000000000000e+00 -3.321219699999999886e-02 -3.065312099999999845e-02 9.831685562000000544e+00
6.300953501999999595e+00 0.000000000000000000e+00 0.000000000000000000e+00 -3.131078941000000171e+00 5.453042967000000019e+00 0.000000000000000000e+00 -5.975650500000000143e-02 9.382762699999999678e-02 9.958342365000000029e+00
6.168004933999999828e+00 0.000000000000000000e+00 0.000000000000000000e+00 -3.113265836000000064e+00 5.316948256999999955e+00 0.000000000000000000e+00 -1.519400199999999986e-02 1.443335899999999977e-02 9.930242471999999765e+00
6.260861637999999729e+00 0.000000000000000000e+00 0.000000000000000000e+00 -3.156980931000000101e+00 5.394828655999999611e+00 0.000000000000000000e+00 8.097165100000000559e-02 2.397652570000000094e-01 1.002438573200000071e+01
6.279810706000000131e+00 0.000000000000000000e+00 0.000000000000000000e+00 -3.063660254999999832e+00 5.409649201999999768e+00 0.000000000000000000e+00 -1.480886210000000036e-01 2.707055200000000120e-02 1.011256631900000080e+01
6.298025943999999932e+00 0.000000000000000000e+00 0.000000000000000000e+00 -3.182078930999999944e+00 5.481660348000000127e+00 0.000000000000000000e+00 -3.416273599999999910e-02 -1.716363230000000073e-01 1.000902616499999986e+01
6.233565089999999920e+00 0.000000000000000000e+00 0.000000000000000000e+00 -3.177047116999999865e+00 5.485179592999999798e+00 0.000000000000000000e+00 9.592148400000000130e-02 3.392256889999999969e-01 1.010591140700000068e+01
6.060765918000000418e+00 0.000000000000000000e+00 0.000000000000000000e+00 -3.174155386999999884e+00 5.219705999000000318e+00 0.000000000000000000e+00 1.081392490000000067e-01 2.864291600000000160e-01 9.881946344999999354e+00
6.204730095999999584e+00 0.000000000000000000e+00 0.000000000000000000e+00 -3.104084225999999891e+00 5.357979730000000274e+00 0.000000000000000000e+00 1.573921699999999979e-01 3.164058539999999864e-01 9.928457827000000790e+00
6.215173666000000097e+00 0.000000000000000000e+00 0.000000000000000000e+00 -2.978121776000000054e+00 5.357966379999999695e+00 0.000000000000000000e+00 -4.969034800000000224e-02 -1.724387980000000042e-01 1.003641880700000044e+01
6.175440017999999753e+00 0.000000000000000000e+00 0.000000000000000000e+00 -3.096279156000000032e+00 5.362469416999999794e+00 0.000000000000000000e+00 2.220811799999999891e-02 6.698650600000000122e-02 9.868763746999999142e+00
6.169979942000000328e+00 0.000000000000000000e+00 0.000000000000000000e+00 -3.158873762999999890e+00 5.362276106000000375e+00 0.000000000000000000e+00 -2.121402500000000094e-02 1.070309609999999939e-01 1.002114581300000040e+01
6.322974852999999840e+00 0.000000000000000000e+00 0.000000000000000000e+00 -3.109302716999999827e+00 5.444082973000000436e+00 0.000000000000000000e+00 -7.792506100000000380e-02 -1.094193870000000068e-01 1.007889099500000007e+01
6.137725360000000130e+00 0.000000000000000000e+00 0.000000000000000000e+00 -3.067773851000000107e+00 5.294971526000000317e+00 0.000000000000000000e+00 2.823012999999999911e-02 -3.390283000000000012e-03 9.868493378000000149e+00
6.204149064000000102e+00 0.000000000000000000e+00 0.000000000000000000e+00 -3.051953194000000202e+00 5.368849166000000395e+00 0.000000000000000000e+00 -1.453923380000000098e-01 -1.691213149999999943e-01 9.994554007999999712e+00
6.060765918000000418e+00 0.000000000000000000e+00 0.000000000000000000e+00 -3.174155386999999884e+00 5.219705999000000318e+00 0.000000000000000000e+00 1.081392490000000067e-01 2.864291600000000160e-01 9.881946344999999354e+00
6.242037868999999795e+00 0.000000000000000000e+00 0.000000000000000000e+00 -3.081878607000000159e+00 5.469458187999999943e+00 0.000000000000000000e+00 -1.520621999999999903e-03 -9.775751800000000158e-02 1.007973193199999962e+01
6.414694356000000042e+00 0.000000000000000000e+00 0.000000000000000000e+00 -3.274782602000000153e+00 5.506065599000000255e+00 0.000000000000000000e+00 2.103369999999999893e-02 1.274559530000000107e-01 1.023282297599999957e+01
6.094653314000000321e+00 0.000000000000000000e+00 0.000000000000000000e+00 -3.007548230999999905e+00 5.267178999999999611e+00 0.000000000000000000e+00 -8.603793899999999384e-02 -2.263217449999999908e-01 9.868983337999999605e+00
6.347643913999999832e+00 0.000000000000000000e+00 0.000000000000000000e+00 -3.251848634999999987e+00 5.531165450999999678e+00 0.000000000000000000e+00 2.854608000000000145e-02 1.709374369999999976e-01 1.023537812100000011e+01
6.237715760999999581e+00 0.000000000000000000e+00 0.000000000000000000e+00 -3.047970730999999933e+00 5.439826177999999679e+00 0.000000000000000000e+00 -3.908366800000000196e-02 -3.577508000000000077e-02 1.001852309100000049e+01
6.210992969000000308e+00 0.000000000000000000e+00 0.000000000000000000e+00 -3.208854692000000064e+00 5.405770412999999941e+00 0.000000000000000000e+00 6.431530500000000317e-02 2.490661640000000066e-01 9.991036154999999752e+00
6.215548538000000178e+00 0.000000000000000000e+00 0.000000000000000000e+00 -3.157164472999999916e+00 5.381467910999999660e+00 0.000000000000000000e+00 1.987917130000000088e-01 2.202360700000000060e-01 9.950233435999999543e+00
6.205728231000000150e+00 0.000000000000000000e+00 0.000000000000000000e+00 -3.197429806000000152e+00 5.339559881999999646e+00 0.000000000000000000e+00 4.860251200000000049e-02 1.707717189999999885e-01 9.940642013999999804e+00
6.199362112000000202e+00 0.000000000000000000e+00 0.000000000000000000e+00 -3.071767342999999872e+00 5.327122621000000002e+00 0.000000000000000000e+00 7.326828999999999981e-03 -6.139350600000000047e-02 1.002685982500000073e+01
6.167548146999999759e+00 0.000000000000000000e+00 0.000000000000000000e+00 -3.091349966000000116e+00 5.334843571000000395e+00 0.000000000000000000e+00 -2.519990500000000161e-02 2.783748000000000125e-02 9.865573423000000730e+00
6.239569071000000022e+00 0.000000000000000000e+00 0.000000000000000000e+00 -3.144568296000000096e+00 5.400536469999999589e+00 0.000000000000000000e+00 2.014778740000000012e-01 2.657449379999999861e-01 9.982087165999999456e+00
6.265367215999999573e+00 0.000000000000000000e+00 0.000000000000000000e+00 -3.177669063999999821e+00 5.424273162999999620e+00 0.000000000000000000e+00 -8.587535999999999781e-03 8.211687700000000478e-02 1.014068076100000049e+01
6.192802114000000024e+00 0.000000000000000000e+00 0.000000000000000000e+00 -3.217410646999999901e+00 5.401945914999999765e+00 0.000000000000000000e+00 7.460190099999999824e-02 1.826415319999999953e-01 9.909713803000000709e+00
6.211868467999999588e+00 0.000000000000000000e+00 0.000000000000000000e+00 -3.100289824999999944e+00 5.348915555999999683e+00 0.000000000000000000e+00 -1.843219499999999844e-02 -1.232122670000000003e-01 9.889672024999999422e+00
6.133484997000000050e+00 0.000000000000000000e+00 0.000000000000000000e+00 -3.097609138999999789e+00 5.314077078000000398e+00 0.000000000000000000e+00 5.048887999999999640e-03 -7.760992000000000411e-03 9.926932917000000245e+00
6.164203835000000353e+00 0.000000000000000000e+00 0.000000000000000000e+00 -2.963227412000000172e+00 5.352888228000000304e+00 0.000000000000000000e+00 -6.935483100000000567e-02 -1.307470609999999978e-01 9.799245552000000359e+00
6.132437934999999563e+00 0.000000000000000000e+00 0.000000000000000000e+00 -2.936992186999999976e+00 5.323769322000000415e+00 0.000000000000000000e+00 -1.128215340000000011e-01 -1.803474740000000076e-01 9.846555614999999761e+00
6.205293852999999693e+00 0.000000000000000000e+00 0.000000000000000000e+00 -3.198698935999999993e+00 5.390444704000000087e+00 0.000000000000000000e+00 2.215551300000000168e-02 1.615474970000000121e-01 1.001578710100000080e+01
6.245361200999999696e+00 0.000000000000000000e+00 0.000000000000000000e+00 -3.115880844999999955e+00 5.440657951000000381e+00 0.000000000000000000e+00 -8.582333500000000059e-02 -1.393779619999999941e-01 1.005659095899999933e+01
6.173199256000000190e+00 0.000000000000000000e+00 0.000000000000000000e+00 -3.083896766000000067e+00 5.330070794000000056e+00 0.000000000000000000e+00 -1.920530900000000027e-02 -4.022139200000000164e-02 9.893301062999999118e+00
6.219403083999999637e+00 0.000000000000000000e+00 0.000000000000000000e+00 -3.094044401000000111e+00 5.340525334999999707e+00 0.000000000000000000e+00 -6.345563199999999793e-02 -4.253567800000000038e-02 1.000728324399999991e+01
