1.612929999999999975e+00 6.678199999999999692e-01 4.247860000000000191e+00 1.537749999999999950e+00 8.279999999999999583e-01 9.198750000000000426e+00 -8.064999999999999947e-02 3.694430000000000103e+00 4.336280000000000356e+00 -1.603199999999999903e-01 3.470940000000000136e+00 9.225690000000000168e+00 4.506910000000000416e+00 8.736300000000000177e-01 4.236180000000000057e+00 4.486369999999999969e+00 6.253199999999999870e-01 9.351720000000000255e+00 3.082939999999999792e+00 3.449809999999999821e+00 4.478749999999999787e+00 3.137020000000000142e+00 3.296310000000000073e+00 9.249589999999999534e+00 -1.351799999999999946e-01 1.672700000000000076e+00 1.739290000000000003e+00 -1.869399999999999951e-01 1.578840000000000021e+00 7.197020000000000195e+00 -1.675140000000000073e+00 4.475259999999999572e+00 1.874090000000000034e+00 -1.657480000000000064e+00 4.369979999999999976e+00 6.816469999999999807e+00 3.039340000000000153e+00 1.809479999999999977e+00 1.980019999999999891e+00 3.062679999999999847e+00 1.544810000000000016e+00 6.671389999999999709e+00 1.449510000000000076e+00 4.241290000000000227e+00 1.959249999999999936e+00 1.466010000000000035e+00 4.281570000000000320e+00 6.770789999999999864e+00 1.383029999999999982e+00 8.435399999999999565e-01 2.408189999999999831e+00 1.488620000000000054e+00 7.881299999999999972e-01 7.353889999999999816e+00 -2.039900000000000047e-01 3.505840000000000067e+00 2.400300000000000100e+00 -7.611999999999999322e-02 3.439830000000000165e+00 7.258840000000000181e+00 4.615689999999999849e+00 7.603299999999999503e-01 2.302059999999999995e+00 4.448610000000000397e+00 6.139700000000000157e-01 7.450739999999999696e+00 3.084270000000000067e+00 3.489959999999999951e+00 2.522510000000000030e+00 2.975880000000000081e+00 3.403340000000000032e+00 7.359239999999999782e+00 -1.136599999999999971e-01 1.659580000000000055e+00 9.679140000000000299e+00 -1.639890000000000070e+00 4.302629999999999733e+00 4.976829999999999643e+00 -1.755549999999999944e+00 4.375880000000000436e+00 9.755309999999999704e+00 3.044890000000000096e+00 1.661990000000000078e+00 4.805749999999999744e+00 3.155240000000000045e+00 1.831040000000000001e+00 1.190900000000000014e-01 1.565099999999999936e+00 4.429890000000000327e+00 4.892629999999999590e+00 1.561199999999999921e+00 4.378099999999999881e+00 7.281999999999999584e-02
1.658039999999999958e+00 8.224500000000000144e-01 4.325330000000000119e+00 1.536890000000000089e+00 9.194299999999999695e-01 9.312480000000000757e+00 -1.110000000000000049e-02 3.751430000000000042e+00 4.327250000000000263e+00 9.419999999999999554e-03 3.599359999999999893e+00 9.335910000000000153e+00 4.481220000000000425e+00 8.223799999999999999e-01 4.329399999999999693e+00 4.612610000000000099e+00 9.282799999999999940e-01 9.320840000000000458e+00 3.101980000000000182e+00 3.604130000000000056e+00 4.303899999999999615e+00 3.109809999999999963e+00 3.608029999999999848e+00 9.324410000000000309e+00 -1.124999999999999958e-02 1.804950000000000054e+00 1.864829999999999988e+00 -8.319999999999999271e-03 1.841599999999999904e+00 7.159830000000000361e+00 -1.551730000000000054e+00 4.455849999999999866e+00 1.848519999999999941e+00 -1.553630000000000067e+00 4.504640000000000200e+00 6.836179999999999701e+00 3.083299999999999930e+00 1.761970000000000036e+00 1.867469999999999963e+00 3.090139999999999887e+00 1.829399999999999915e+00 6.863850000000000229e+00 1.516799999999999926e+00 4.486659999999999648e+00 1.874859999999999971e+00 1.547819999999999974e+00 4.496139999999999581e+00 6.844750000000000334e+00 1.502590000000000092e+00 9.153400000000000425e-01 2.493390000000000217e+00 1.527919999999999945e+00 9.381000000000000449e-01 7.389579999999999593e+00 1.282999999999999939e-02 3.537970000000000059e+00 2.472350000000000048e+00 1.095999999999999926e-02 3.620880000000000098e+00 7.406229999999999869e+00 4.668350000000000222e+00 9.295600000000000529e-01 2.477730000000000210e+00 4.599359999999999893e+00 9.166699999999999848e-01 7.401139999999999830e+00 3.097890000000000033e+00 3.585669999999999913e+00 2.436900000000000066e+00 3.080779999999999852e+00 3.595829999999999860e+00 7.421640000000000015e+00 -7.380000000000000275e-03 1.826670000000000016e+00 9.861349999999999838e+00 -1.541179999999999994e+00 4.480800000000000338e+00 4.978670000000000151e+00 -1.521700000000000053e+00 4.523649999999999949e+00 9.904030000000000555e+00 3.089430000000000121e+00 1.852319999999999967e+00 4.958859999999999602e+00 3.083060000000000134e+00 1.755489999999999995e+00 2.364000000000000129e-02 1.575190000000000090e+00 4.451240000000000308e+00 4.981589999999999741e+00 1.565039999999999987e+00 4.448489999999999611e+00 1.384999999999999946e-02
1.773670000000000080e+00 8.588700000000000223e-01 4.445649999999999658e+00 1.606849999999999890e+00 1.088459999999999983e+00 9.290929999999999467e+00 2.222899999999999876e-01 3.892869999999999830e+00 4.283159999999999634e+00 1.851599999999999913e-01 3.869779999999999998e+00 9.526759999999999451e+00 4.439589999999999925e+00 4.619699999999999918e-01 4.312730000000000175e+00 4.754120000000000346e+00 1.276729999999999920e+00 9.345779999999999532e+00 3.249800000000000022e+00 3.537850000000000161e+00 4.441159999999999997e+00 3.234030000000000182e+00 4.046020000000000394e+00 9.416299999999999670e+00 1.588400000000000090e-01 1.932029999999999914e+00 1.973640000000000061e+00 -1.367299999999999904e-01 2.063790000000000013e+00 7.051099999999999923e+00 -1.469940000000000024e+00 4.761910000000000309e+00 1.952399999999999913e+00 -1.472190000000000110e+00 4.753389999999999560e+00 6.989379999999999704e+00 3.193690000000000140e+00 1.972730000000000095e+00 1.911669999999999980e+00 3.125160000000000160e+00 1.935789999999999900e+00 6.870790000000000397e+00 1.688350000000000017e+00 4.688229999999999897e+00 1.910679999999999934e+00 1.617979999999999974e+00 4.706710000000000171e+00 7.066510000000000069e+00 1.669210000000000083e+00 9.969700000000000228e-01 2.535210000000000186e+00 1.485980000000000079e+00 1.151510000000000034e+00 7.351090000000000124e+00 -2.935000000000000109e-02 3.779290000000000038e+00 2.306309999999999860e+00 1.790700000000000069e-01 3.829000000000000181e+00 7.531629999999999825e+00 4.692359999999999864e+00 9.548600000000000421e-01 2.494800000000000129e+00 4.816919999999999646e+00 1.070880000000000054e+00 7.422620000000000218e+00 3.150389999999999802e+00 3.680280000000000218e+00 2.481850000000000112e+00 3.240270000000000206e+00 3.867039999999999811e+00 7.614279999999999937e+00 3.874999999999999972e-02 1.909999999999999920e+00 7.739000000000000046e-02 -1.456479999999999997e+00 4.442610000000000170e+00 5.098889999999999922e+00 -1.610770000000000035e+00 4.852430000000000021e+00 9.979779999999999873e+00 3.139479999999999826e+00 1.861240000000000006e+00 5.085180000000000256e+00 3.113469999999999960e+00 2.074040000000000106e+00 9.947329999999999117e+00 1.644530000000000047e+00 4.449349999999999916e+00 5.117759999999999643e+00 1.719379999999999908e+00 4.931070000000000064e+00 9.800610000000000710e+00
1.733330000000000037e+00 1.083860000000000046e+00 4.307010000000000005e+00 1.652859999999999996e+00 9.146600000000000286e-01 9.379429999999999268e+00 -6.099999999999999737e-04 3.980109999999999815e+00 4.191460000000000186e+00 1.494699999999999918e-01 3.839589999999999836e+00 9.237489999999999313e+00 4.226230000000000153e+00 8.376299999999999857e-01 4.233360000000000234e+00 4.803090000000000082e+00 1.063139999999999974e+00 9.360239999999999227e+00 3.212639999999999940e+00 3.708790000000000031e+00 4.493859999999999744e+00 2.942509999999999959e+00 3.643240000000000034e+00 9.366289999999999338e+00 5.242000000000000132e-02 1.914600000000000080e+00 1.776240000000000041e+00 7.821000000000000174e-02 1.983130000000000059e+00 6.933860000000000134e+00 -1.629690000000000083e+00 4.587729999999999642e+00 1.794790000000000108e+00 -1.552459999999999951e+00 4.853629999999999889e+00 6.713960000000000150e+00 3.041949999999999932e+00 1.825590000000000046e+00 1.818990000000000107e+00 3.179809999999999803e+00 2.000280000000000058e+00 6.773799999999999599e+00 1.473459999999999992e+00 4.500980000000000203e+00 1.984369999999999967e+00 1.671890000000000098e+00 4.677880000000000038e+00 6.853200000000000180e+00 1.331530000000000102e+00 8.226599999999999469e-01 2.589869999999999894e+00 1.682839999999999892e+00 1.128830000000000000e+00 7.520649999999999835e+00 -1.425200000000000078e-01 3.587320000000000064e+00 2.554330000000000211e+00 1.478599999999999914e-01 3.761159999999999837e+00 7.378260000000000041e+00 4.626579999999999693e+00 9.603899999999999659e-01 2.378629999999999800e+00 4.712740000000000151e+00 1.180579999999999963e+00 7.481950000000000323e+00 3.109339999999999993e+00 3.703329999999999789e+00 2.608550000000000146e+00 3.180680000000000174e+00 3.790150000000000130e+00 7.238559999999999661e+00 3.865999999999999992e-02 2.117690000000000072e+00 9.851300000000000168e+00 -1.579499999999999904e+00 4.732190000000000119e+00 4.899460000000000370e+00 -1.483980000000000077e+00 4.675320000000000142e+00 9.840939999999999799e+00 2.975299999999999834e+00 2.050149999999999917e+00 5.003129999999999633e+00 3.197820000000000107e+00 1.656029999999999891e+00 9.263000000000000400e-02 1.430600000000000094e+00 4.694890000000000008e+00 5.047990000000000421e+00 1.481370000000000076e+00 4.532490000000000130e+00 1.903700000000000114e-01
1.559940000000000104e+00 8.769099999999999673e-01 4.139059999999999739e+00 1.514739999999999975e+00 8.324500000000000233e-01 9.407199999999999562e+00 -2.855999999999999858e-02 3.683720000000000105e+00 4.216719999999999580e+00 1.910000000000000022e-03 3.539070000000000160e+00 9.439759999999999707e+00 4.342109999999999914e+00 7.842200000000000282e-01 4.155380000000000074e+00 4.665989999999999860e+00 8.955199999999999827e-01 9.381890000000000285e+00 3.078629999999999978e+00 3.658510000000000151e+00 4.446010000000000240e+00 3.106970000000000010e+00 3.633290000000000131e+00 9.306319999999999482e+00 -1.678900000000000114e-01 1.734189999999999898e+00 1.964280000000000026e+00 3.946000000000000202e-02 1.804480000000000084e+00 7.085079999999999600e+00 -1.551260000000000083e+00 4.466520000000000046e+00 1.814990000000000103e+00 -1.652309999999999945e+00 4.545810000000000350e+00 6.745790000000000397e+00 3.056750000000000078e+00 1.755980000000000096e+00 1.786140000000000061e+00 3.080960000000000143e+00 1.847059999999999924e+00 6.877379999999999605e+00 1.628109999999999946e+00 4.290910000000000224e+00 1.752029999999999976e+00 1.553060000000000107e+00 4.614080000000000403e+00 6.857479999999999798e+00 1.379070000000000018e+00 1.049339999999999939e+00 2.375430000000000152e+00 1.541230000000000100e+00 9.961900000000000199e-01 7.532960000000000100e+00 -3.006999999999999951e-02 3.595740000000000158e+00 2.456649999999999778e+00 -5.276000000000000134e-02 3.629509999999999792e+00 7.518180000000000085e+00 4.674150000000000027e+00 8.330400000000000027e-01 2.431369999999999809e+00 4.701050000000000395e+00 9.084999999999999742e-01 7.560889999999999667e+00 3.143800000000000150e+00 3.524729999999999919e+00 2.537469999999999892e+00 3.061710000000000154e+00 3.606869999999999798e+00 7.358050000000000423e+00 -6.302000000000000657e-02 1.742169999999999996e+00 1.413999999999999979e-01 -1.507989999999999942e+00 4.551709999999999923e+00 4.950689999999999813e+00 -1.519879999999999898e+00 4.492270000000000429e+00 5.700000000000000205e-03 3.051979999999999915e+00 1.903080000000000105e+00 4.982359999999999900e+00 3.049490000000000034e+00 1.865550000000000042e+00 9.928359999999999630e+00 1.635590000000000099e+00 4.485249999999999737e+00 4.948640000000000150e+00 1.654320000000000013e+00 4.459559999999999746e+00 5.145999999999999880e-02
1.645720000000000072e+00 9.312899999999999512e-01 4.329659999999999620e+00 1.614789999999999948e+00 1.046559999999999935e+00 9.468899999999999650e+00 -6.779999999999999916e-02 3.802280000000000104e+00 4.300180000000000113e+00 -3.275000000000000133e-02 3.898470000000000102e+00 9.457090000000000884e+00 4.570240000000000080e+00 1.050599999999999978e+00 4.450309999999999988e+00 4.615240000000000009e+00 1.121189999999999909e+00 9.391389999999999461e+00 2.978359999999999896e+00 3.720120000000000093e+00 4.362490000000000201e+00 3.052249999999999908e+00 3.822319999999999940e+00 9.604260000000000019e+00 1.055000000000000035e-02 1.761060000000000070e+00 1.771009999999999973e+00 1.159700000000000036e-01 1.831450000000000022e+00 7.183460000000000178e+00 -1.669359999999999955e+00 4.510139999999999816e+00 1.925659999999999927e+00 -1.555860000000000021e+00 4.649099999999999788e+00 6.882030000000000314e+00 3.072900000000000187e+00 1.875350000000000072e+00 1.857809999999999961e+00 3.137840000000000185e+00 1.921740000000000004e+00 6.901819999999999844e+00 1.494660000000000100e+00 4.676129999999999676e+00 1.935049999999999937e+00 1.469780000000000086e+00 4.656119999999999592e+00 6.951389999999999958e+00 1.499519999999999964e+00 1.005120000000000013e+00 2.510889999999999844e+00 1.688949999999999951e+00 9.198800000000000310e-01 7.619600000000000151e+00 -7.507999999999999396e-02 3.664779999999999927e+00 2.521900000000000031e+00 -6.872000000000000330e-02 3.727819999999999911e+00 7.455639999999999823e+00 4.653819999999999624e+00 9.696399999999999464e-01 2.635149999999999881e+00 4.782469999999999999e+00 1.056729999999999947e+00 7.507590000000000430e+00 2.978000000000000203e+00 3.648400000000000087e+00 2.467610000000000081e+00 3.071600000000000108e+00 3.810430000000000206e+00 7.527639999999999887e+00 -1.005999999999999950e-02 2.002279999999999838e+00 9.915409999999999613e+00 -1.807960000000000012e+00 4.644840000000000302e+00 4.968270000000000408e+00 -1.562370000000000037e+00 4.441530000000000200e+00 7.041999999999999649e-02 3.086910000000000043e+00 2.035169999999999924e+00 5.056750000000000078e+00 3.163889999999999869e+00 1.949999999999999956e+00 9.994249999999999190e+00 1.528909999999999991e+00 4.725819999999999688e+00 4.924290000000000056e+00 1.483519999999999950e+00 4.631899999999999906e+00 7.130000000000000053e-03
1.739549999999999930e+00 8.024900000000000366e-01 4.398760000000000225e+00 1.503540000000000099e+00 7.366399999999999615e-01 9.522830000000000794e+00 2.654000000000000248e-01 3.795389999999999819e+00 4.338890000000000136e+00 -4.809000000000000080e-02 3.343510000000000204e+00 9.632709999999999440e+00 4.620420000000000194e+00 7.344300000000000272e-01 4.403039999999999843e+00 4.584410000000000096e+00 6.478800000000000114e-01 9.521979999999999222e+00 3.244159999999999933e+00 3.417609999999999815e+00 4.434820000000000206e+00 3.059450000000000003e+00 3.313190000000000079e+00 9.557710000000000150e+00 -9.948999999999999511e-02 1.672609999999999930e+00 1.825269999999999948e+00 -7.516000000000000458e-02 1.750180000000000069e+00 7.101469999999999949e+00 -1.564019999999999966e+00 4.471770000000000245e+00 1.872530000000000028e+00 -1.522110000000000074e+00 4.325680000000000192e+00 6.917559999999999931e+00 3.062829999999999941e+00 1.702949999999999964e+00 1.896060000000000079e+00 3.080529999999999990e+00 1.607949999999999990e+00 7.052270000000000039e+00 1.584889999999999910e+00 4.397940000000000182e+00 1.812980000000000036e+00 1.542180000000000106e+00 4.282210000000000072e+00 7.014770000000000394e+00 1.449869999999999992e+00 9.751999999999999558e-01 2.528000000000000025e+00 1.510329999999999950e+00 8.830500000000000016e-01 7.640880000000000116e+00 1.390399999999999969e-01 3.516160000000000174e+00 2.492090000000000138e+00 -6.603000000000000536e-02 3.521220000000000017e+00 7.604510000000000325e+00 4.629249999999999865e+00 8.346500000000000030e-01 2.554870000000000196e+00 4.540289999999999715e+00 8.013700000000000268e-01 7.672710000000000363e+00 3.084540000000000060e+00 3.573280000000000012e+00 2.646799999999999820e+00 2.912030000000000118e+00 3.426299999999999901e+00 7.665189999999999948e+00 -7.300000000000000065e-03 1.628460000000000019e+00 1.006807000000000052e+01 -1.437990000000000101e+00 4.374340000000000117e+00 4.965069999999999872e+00 -1.512820000000000054e+00 4.316989999999999661e+00 1.011912000000000056e+01 3.317349999999999799e+00 1.797220000000000040e+00 5.093479999999999563e+00 3.133700000000000152e+00 1.726199999999999957e+00 6.029999999999999943e-02 1.774769999999999959e+00 4.385200000000000209e+00 5.164850000000000385e+00 1.494729999999999892e+00 4.264520000000000088e+00 1.006850999999999985e+01
1.683950000000000058e+00 7.881700000000000372e-01 4.310500000000000220e+00 1.507679999999999909e+00 8.480799999999999450e-01 9.364850000000000563e+00 -2.665999999999999967e-02 3.750030000000000197e+00 4.314049999999999940e+00 -4.916999999999999843e-02 3.523280000000000189e+00 9.356389999999999318e+00 4.408699999999999619e+00 7.472900000000000098e-01 4.299619999999999997e+00 4.579959999999999809e+00 8.343000000000000416e-01 9.343590000000000728e+00 3.050969999999999960e+00 3.520099999999999785e+00 4.366259999999999586e+00 3.014629999999999921e+00 3.481549999999999923e+00 9.329599999999999227e+00 -1.375000000000000007e-02 1.780520000000000103e+00 1.881580000000000030e+00 -4.800000000000000100e-02 1.734310000000000018e+00 7.074620000000000353e+00 -1.561709999999999932e+00 4.458129999999999704e+00 1.853660000000000085e+00 -1.615750000000000020e+00 4.401349999999999874e+00 6.907709999999999795e+00 3.058180000000000121e+00 1.776429999999999954e+00 1.837280000000000024e+00 3.065310000000000201e+00 1.714239999999999986e+00 6.855179999999999829e+00 1.543009999999999993e+00 4.394820000000000171e+00 1.827129999999999921e+00 1.506310000000000038e+00 4.409419999999999895e+00 6.872609999999999886e+00 1.518469999999999986e+00 8.983600000000000474e-01 2.471750000000000114e+00 1.526909999999999989e+00 8.631699999999999928e-01 7.459069999999999645e+00 -3.998000000000000165e-02 3.550100000000000033e+00 2.476210000000000022e+00 -4.347000000000000169e-02 3.522689999999999877e+00 7.455149999999999721e+00 4.583750000000000213e+00 8.655500000000000416e-01 2.470839999999999925e+00 4.582209999999999894e+00 8.583499999999999464e-01 7.442610000000000170e+00 3.068119999999999958e+00 3.526879999999999793e+00 2.442130000000000134e+00 3.046829999999999927e+00 3.499490000000000212e+00 7.452180000000000248e+00 -1.020000000000000073e-02 1.780219999999999914e+00 1.704999999999999918e-02 -1.608640000000000070e+00 4.410479999999999734e+00 5.036100000000000243e+00 -1.578279999999999905e+00 4.412880000000000358e+00 9.899910000000000210e+00 3.063930000000000042e+00 1.758769999999999945e+00 4.988959999999999617e+00 3.069760000000000044e+00 1.756850000000000023e+00 1.142999999999999919e-02 1.544710000000000027e+00 4.386309999999999931e+00 5.009299999999999642e+00 1.481770000000000032e+00 4.392780000000000129e+00 9.918499999999999872e+00
1.772680000000000033e+00 8.076900000000000190e-01 4.331949999999999967e+00 1.643799999999999928e+00 9.112299999999999844e-01 9.378550000000000608e+00 6.543000000000000205e-02 3.768730000000000135e+00 4.305539999999999701e+00 6.056999999999999884e-02 3.651889999999999858e+00 9.360839999999999606e+00 4.549089999999999634e+00 8.396200000000000330e-01 4.327580000000000204e+00 4.703439999999999621e+00 9.345099999999999518e-01 9.381729999999999237e+00 3.124849999999999905e+00 3.605290000000000106e+00 4.381509999999999572e+00 3.164759999999999796e+00 3.646220000000000017e+00 9.385659999999999670e+00 5.799999999999999600e-03 1.813129999999999908e+00 1.834629999999999983e+00 8.770999999999999630e-02 1.785439999999999916e+00 7.230369999999999742e+00 -1.509239999999999915e+00 4.531089999999999840e+00 1.881599999999999939e+00 -1.491710000000000091e+00 4.491410000000000124e+00 6.887609999999999566e+00 3.093150000000000066e+00 1.857399999999999940e+00 1.859410000000000007e+00 3.163069999999999826e+00 1.820780000000000065e+00 6.900990000000000180e+00 1.548370000000000024e+00 4.513600000000000279e+00 1.862819999999999920e+00 1.616670000000000051e+00 4.526489999999999903e+00 6.861270000000000202e+00 1.539940000000000087e+00 9.217600000000000238e-01 2.496379999999999821e+00 1.658199999999999896e+00 8.971099999999999630e-01 7.463420000000000165e+00 2.570000000000000062e-02 3.569360000000000088e+00 2.489469999999999850e+00 7.842999999999999972e-02 3.613500000000000156e+00 7.453359999999999985e+00 4.645059999999999967e+00 9.555299999999999905e-01 2.467649999999999899e+00 4.683370000000000033e+00 9.006899999999999906e-01 7.464330000000000354e+00 3.120950000000000113e+00 3.648320000000000007e+00 2.474689999999999834e+00 3.162999999999999812e+00 3.603019999999999889e+00 7.468790000000000262e+00 9.501999999999999336e-02 1.851960000000000051e+00 9.861370000000000857e+00 -1.513179999999999970e+00 4.475100000000000300e+00 4.993369999999999642e+00 -1.449179999999999913e+00 4.558790000000000120e+00 9.955069999999999197e+00 3.161929999999999907e+00 1.846400000000000041e+00 4.989390000000000214e+00 3.075130000000000141e+00 1.788729999999999931e+00 1.397999999999999937e-02 1.598780000000000090e+00 4.508919999999999817e+00 4.979739999999999611e+00 1.595569999999999933e+00 4.543619999999999770e+00 9.950989999999999114e+00
1.725980000000000070e+00 7.796600000000000197e-01 4.423040000000000305e+00 1.813379999999999992e+00 1.151399999999999979e+00 9.598760000000000403e+00 -6.370000000000000662e-02 3.782639999999999780e+00 4.350710000000000299e+00 1.610199999999999965e-01 3.918359999999999843e+00 9.443540000000000489e+00 4.424760000000000026e+00 9.222200000000000397e-01 4.241740000000000066e+00 4.744130000000000180e+00 1.125850000000000017e+00 9.346790000000000376e+00 3.233849999999999891e+00 3.829439999999999955e+00 4.452530000000000321e+00 3.244549999999999823e+00 3.856040000000000134e+00 9.601679999999999993e+00 -4.871000000000000330e-02 1.795069999999999943e+00 1.845080000000000053e+00 1.138200000000000045e-01 2.063740000000000130e+00 7.241229999999999833e+00 -1.529190000000000049e+00 4.485640000000000072e+00 1.837520000000000042e+00 -1.533560000000000034e+00 4.550279999999999880e+00 7.044360000000000177e+00 2.956939999999999902e+00 1.881780000000000008e+00 2.108410000000000117e+00 3.124449999999999950e+00 1.911270000000000024e+00 6.864939999999999820e+00 1.518280000000000074e+00 4.592310000000000336e+00 1.937750000000000083e+00 1.605799999999999894e+00 4.672150000000000247e+00 6.799360000000000070e+00 1.453650000000000109e+00 8.667300000000000004e-01 2.490650000000000031e+00 1.654770000000000074e+00 9.625599999999999712e-01 7.693629999999999747e+00 8.387000000000000011e-02 3.620470000000000077e+00 2.503659999999999997e+00 1.933900000000000063e-01 3.828269999999999840e+00 7.644230000000000302e+00 4.608880000000000088e+00 9.428499999999999659e-01 2.428100000000000147e+00 4.698310000000000208e+00 1.159149999999999903e+00 7.362820000000000142e+00 3.230560000000000098e+00 3.621859999999999857e+00 2.423119999999999941e+00 2.956599999999999895e+00 3.701999999999999957e+00 7.508580000000000254e+00 8.470999999999999364e-02 1.968939999999999912e+00 9.893330000000000624e+00 -1.473389999999999977e+00 4.555810000000000137e+00 5.204360000000000319e+00 -1.517079999999999984e+00 4.603390000000000093e+00 1.048000000000000043e-01 3.073620000000000019e+00 1.895520000000000094e+00 5.011160000000000281e+00 3.257730000000000015e+00 1.721540000000000070e+00 1.481300000000000117e-01 1.505509999999999904e+00 4.546030000000000015e+00 4.967740000000000045e+00 1.724879999999999969e+00 4.683230000000000004e+00 1.002359000000000044e+01
1.923399999999999999e+00 7.737600000000000033e-01 4.264120000000000132e+00 1.520580000000000043e+00 9.194099999999999495e-01 9.563660000000000494e+00 -2.383000000000000049e-02 3.893250000000000099e+00 4.156450000000000422e+00 -4.166999999999999871e-02 3.658669999999999867e+00 9.581780000000000186e+00 4.550239999999999618e+00 6.779500000000000526e-01 4.350039999999999907e+00 4.758689999999999642e+00 6.419899999999999496e-01 9.503529999999999589e+00 3.154580000000000162e+00 3.516399999999999970e+00 4.526130000000000209e+00 3.219629999999999992e+00 3.491019999999999790e+00 9.543060000000000542e+00 -9.260999999999999788e-02 1.854889999999999928e+00 1.776080000000000103e+00 -3.299999999999999982e-04 1.676449999999999996e+00 7.365540000000000198e+00 -1.619050000000000100e+00 4.498780000000000001e+00 1.905999999999999917e+00 -1.618530000000000024e+00 4.522100000000000009e+00 6.974669999999999703e+00 3.196309999999999985e+00 1.876430000000000042e+00 1.846300000000000052e+00 3.204140000000000210e+00 1.698890000000000011e+00 7.021709999999999674e+00 1.568130000000000024e+00 4.503800000000000026e+00 1.998199999999999976e+00 1.576549999999999896e+00 4.386449999999999960e+00 6.956249999999999822e+00 1.611969999999999903e+00 8.800200000000000244e-01 2.352910000000000057e+00 1.550810000000000022e+00 8.387200000000000211e-01 7.700319999999999609e+00 -4.451000000000000095e-02 3.680759999999999810e+00 2.323809999999999931e+00 -5.673999999999999877e-02 3.575279999999999792e+00 7.595780000000000420e+00 4.728189999999999671e+00 8.627799999999999914e-01 2.474479999999999791e+00 4.673770000000000202e+00 7.365800000000000125e-01 7.615310000000000024e+00 3.150419999999999998e+00 3.602329999999999810e+00 2.523899999999999810e+00 3.095909999999999940e+00 3.535439999999999916e+00 7.505209999999999937e+00 -1.220399999999999957e-01 1.713789999999999925e+00 9.921939999999999316e+00 -1.651909999999999989e+00 4.469940000000000246e+00 4.953769999999999563e+00 -1.561439999999999939e+00 4.605190000000000339e+00 2.904999999999999943e-02 3.190920000000000201e+00 1.717989999999999906e+00 5.185229999999999784e+00 3.092070000000000096e+00 1.742520000000000069e+00 9.924279999999999546e+00 1.570910000000000029e+00 4.358220000000000205e+00 4.966420000000000279e+00 1.574869999999999992e+00 4.437640000000000029e+00 5.410000000000000225e-02
1.647089999999999943e+00 9.632399999999999851e-01 4.300880000000000258e+00 1.655580000000000052e+00 8.683600000000000207e-01 9.574339999999999407e+00 -7.599999999999999811e-02 4.004800000000000360e+00 4.498870000000000147e+00 5.195999999999999924e-02 3.542699999999999960e+00 9.502290000000000347e+00 4.860619999999999941e+00 9.425999999999999934e-01 4.282700000000000173e+00 4.684079999999999799e+00 6.767900000000000027e-01 9.598589999999999733e+00 3.118559999999999999e+00 3.763539999999999885e+00 4.474750000000000227e+00 3.252609999999999779e+00 3.679809999999999803e+00 9.553710000000000591e+00 7.141000000000000125e-02 1.921899999999999942e+00 1.731009999999999938e+00 1.350399999999999934e-01 1.882060000000000066e+00 7.517149999999999999e+00 -1.312999999999999945e+00 4.657960000000000100e+00 1.841809999999999947e+00 -1.743670000000000053e+00 4.670239999999999725e+00 6.829670000000000130e+00 3.169849999999999834e+00 1.759880000000000111e+00 1.842999999999999972e+00 3.148519999999999985e+00 1.794270000000000032e+00 6.937689999999999912e+00 1.669149999999999912e+00 4.511849999999999916e+00 2.032350000000000101e+00 1.588619999999999921e+00 4.568329999999999558e+00 6.950739999999999696e+00 1.486259999999999915e+00 8.510600000000000387e-01 2.355319999999999858e+00 1.586009999999999920e+00 9.720100000000000406e-01 7.671840000000000437e+00 -2.293999999999999859e-02 3.563550000000000217e+00 2.682490000000000041e+00 6.864000000000000656e-02 3.716810000000000169e+00 7.407960000000000100e+00 4.713530000000000442e+00 8.456500000000000128e-01 2.417759999999999909e+00 4.788030000000000008e+00 8.143099999999999783e-01 7.490300000000000402e+00 3.221280000000000143e+00 3.580589999999999939e+00 2.469110000000000138e+00 3.069599999999999884e+00 3.793219999999999814e+00 7.519989999999999952e+00 -4.340000000000000108e-03 1.860249999999999959e+00 9.916059999999999874e+00 -1.592470000000000052e+00 4.768250000000000099e+00 4.971910000000000274e+00 -1.531900000000000039e+00 4.607719999999999594e+00 9.950000000000000511e-03 3.196250000000000036e+00 2.040830000000000144e+00 5.000300000000000189e+00 3.298540000000000028e+00 1.759619999999999962e+00 1.185200000000000004e-01 1.556640000000000024e+00 4.680069999999999730e+00 5.100590000000000401e+00 1.618430000000000035e+00 4.333070000000000199e+00 2.956999999999999906e-02