-2.460111343899999952e+02
-2.482406848500000081e+02
-2.441329898500000013e+02
-2.429161450899999863e+02
-2.450900468499999931e+02
-2.458527788899999962e+02
-2.455868330099999923e+02
-2.483665317699999946e+02
-2.483201867500000048e+02
-2.445749475300000029e+02
-2.460788802099999941e+02
-2.429059680899999876e+02
-2.441512373299999865e+02
-2.483207574699999896e+02
-2.464509568199999876e+02
-2.454970468600000117e+02
-2.451447533200000066e+02
-2.455566604400000017e+02
-2.456956285999999920e+02
-2.432053486099999873e+02
-2.475840736300000060e+02
-2.454104744299999936e+02
-2.426442897000000016e+02
-2.482893503500000065e+02
-2.459954028100000016e+02
-2.462286753999999860e+02
-2.482223604799999919e+02
-2.457320955099999935e+02
-2.475840736300000060e+02
-2.434396648400000061e+02
-2.422575424000000055e+02
-2.450780001699999957e+02
-2.419164619199999890e+02
-2.447893961400000080e+02
-2.430122221700000011e+02
-2.458124891399999967e+02
-2.459169361700000138e+02
-2.430372103599999889e+02
-2.484131893800000057e+02
-2.462195298499999865e+02
-2.440572564999999940e+02
-2.438748590600000057e+02
-2.469363089800000068e+02
-2.482163583599999868e+02
-2.463036305100000050e+02
-2.451343593899999860e+02
-2.430118556300000137e+02
-2.447599344900000062e+02
-2.482373116699999969e+02
-2.460955902800000104e+02
