6.209494913000000338e+00 0.000000000000000000e+00 0.000000000000000000e+00 -3.132737480999999935e+00 5.443625435999999596e+00 0.000000000000000000e+00 -1.043614149999999990e-01 9.258950600000000197e-02 1.002148540800000021e+01
6.202957162999999774e+00 0.000000000000000000e+00 0.000000000000000000e+00 -3.082751088999999833e+00 5.403599477000000206e+00 0.000000000000000000e+00 6.849241500000000094e-02 9.768840900000000382e-02 1.031175075600000035e+01
6.121156343000000000e+00 0.000000000000000000e+00 0.000000000000000000e+00 -3.075070048000000167e+00 5.310116089000000095e+00 0.000000000000000000e+00 1.107581839999999956e-01 1.463223509999999894e-01 1.015740476799999925e+01
6.323742241999999791e+00 0.000000000000000000e+00 0.000000000000000000e+00 -3.042252904999999785e+00 5.482385410000000014e+00 0.000000000000000000e+00 4.570532740000000094e-01 3.390053479999999841e-01 1.066538687100000082e+01
6.242077977000000111e+00 0.000000000000000000e+00 0.000000000000000000e+00 -3.015113658999999835e+00 5.473051062999999772e+00 0.000000000000000000e+00 -4.037636820000000126e-01 -2.786131379999999824e-01 1.012081143500000024e+01
6.205593111999999856e+00 0.000000000000000000e+00 0.000000000000000000e+00 -3.106854921000000047e+00 5.383214951000000248e+00 0.000000000000000000e+00 5.206887000000000321e-03 1.450713760000000019e-01 1.034770766499999972e+01
6.236357040999999768e+00 0.000000000000000000e+00 0.000000000000000000e+00 -3.129496592000000188e+00 5.472113085000000154e+00 0.000000000000000000e+00 -1.093330899999999939e-01 2.947933169999999992e-01 1.046709854400000062e+01
6.229398483999999847e+00 0.000000000000000000e+00 0.000000000000000000e+00 -3.216617595999999857e+00 5.342530828000000120e+00 0.000000000000000000e+00 -1.817835289999999993e-01 1.924299469999999901e-01 9.995925944999999757e+00
6.385402960999999600e+00 0.000000000000000000e+00 0.000000000000000000e+00 -3.149968619000000025e+00 5.529322816999999723e+00 0.000000000000000000e+00 -1.403228131000000101e+00 7.836084599999999512e-01 1.037122222500000035e+01
6.135170704000000086e+00 0.000000000000000000e+00 0.000000000000000000e+00 -3.094559582000000031e+00 5.338253921999999818e+00 0.000000000000000000e+00 -3.443340799999999868e-02 1.841065799999999919e-01 1.008452722300000026e+01
6.341918753999999936e+00 0.000000000000000000e+00 0.000000000000000000e+00 -3.160545355000000001e+00 5.394755093999999751e+00 0.000000000000000000e+00 -1.100127050000000023e-01 2.130411120000000047e-01 1.040033182700000047e+01
6.151358246000000030e+00 0.000000000000000000e+00 0.000000000000000000e+00 -3.119900369999999867e+00 5.362815960999999909e+00 0.000000000000000000e+00 -5.833651999999999935e-03 1.373184149999999992e-01 1.020670732500000000e+01
6.189480008000000311e+00 0.000000000000000000e+00 0.000000000000000000e+00 -3.099856170999999883e+00 5.424971464999999604e+00 0.000000000000000000e+00 1.704989819999999934e-01 -1.269159790000000121e-01 1.076047003599999918e+01
6.029051219000000295e+00 0.000000000000000000e+00 0.000000000000000000e+00 -3.175746100000000016e+00 5.287016085000000309e+00 0.000000000000000000e+00 -8.334983699999999607e-02 1.028942429999999963e-01 9.695796445999999236e+00
6.181361671000000335e+00 0.000000000000000000e+00 0.000000000000000000e+00 -3.041289265000000075e+00 5.375214448999999561e+00 0.000000000000000000e+00 4.042267370000000026e-01 -2.554293999999999922e-03 1.041978971400000020e+01
6.305564916999999880e+00 0.000000000000000000e+00 0.000000000000000000e+00 -3.173773855999999949e+00 5.353826854000000246e+00 0.000000000000000000e+00 1.593521910000000041e-01 1.276087350000000009e-01 1.040619175600000013e+01
6.215554924000000092e+00 0.000000000000000000e+00 0.000000000000000000e+00 -3.136211154999999806e+00 5.382734194000000194e+00 0.000000000000000000e+00 4.046123100000000028e-02 5.754038499999999945e-02 1.040931812900000075e+01
6.283867192999999851e+00 0.000000000000000000e+00 0.000000000000000000e+00 -3.264987168000000217e+00 5.510178339000000314e+00 0.000000000000000000e+00 -2.450766359999999866e-01 -1.455199000000000076e-01 1.032005874000000034e+01
6.170845936000000087e+00 0.000000000000000000e+00 0.000000000000000000e+00 -3.142950691999999879e+00 5.441724085999999794e+00 0.000000000000000000e+00 3.024875220000000087e-01 1.255098119999999984e-01 1.013415224000000059e+01
6.236018140999999737e+00 0.000000000000000000e+00 0.000000000000000000e+00 -3.276312075999999962e+00 5.383933099000000055e+00 0.000000000000000000e+00 -2.162547039999999920e-01 -5.990682099999999899e-02 1.019284967900000005e+01
6.173206884999999922e+00 0.000000000000000000e+00 0.000000000000000000e+00 -3.127644113000000115e+00 5.368575068000000172e+00 0.000000000000000000e+00 1.293311800000000039e-02 1.537656540000000016e-01 1.018496346300000077e+01
6.235998881999999632e+00 0.000000000000000000e+00 0.000000000000000000e+00 -3.096489089999999944e+00 5.400615629999999889e+00 0.000000000000000000e+00 2.676660399999999940e-02 -9.586242700000000005e-02 1.059699140200000045e+01
6.208932605000000216e+00 0.000000000000000000e+00 0.000000000000000000e+00 -3.116817578000000033e+00 5.309670822000000179e+00 0.000000000000000000e+00 -5.945449999999999693e-03 -2.180441439999999953e-01 1.014888563000000055e+01
6.106942863000000443e+00 0.000000000000000000e+00 0.000000000000000000e+00 -3.216753717000000012e+00 5.349808931000000101e+00 0.000000000000000000e+00 -1.454226859999999955e-01 3.109880420000000201e-01 1.022926326900000049e+01
6.174952095000000085e+00 0.000000000000000000e+00 0.000000000000000000e+00 -3.143275519999999990e+00 5.382357834999999646e+00 0.000000000000000000e+00 -1.154295570000000021e-01 5.878802200000000228e-02 1.057818067700000064e+01
6.158213214999999963e+00 0.000000000000000000e+00 0.000000000000000000e+00 -3.104543908000000130e+00 5.551387887999999826e+00 0.000000000000000000e+00 1.434076910000000038e-01 3.172176000000000076e-03 1.013644721200000021e+01
6.129274675999999644e+00 0.000000000000000000e+00 0.000000000000000000e+00 -3.088597180999999914e+00 5.346247059999999607e+00 0.000000000000000000e+00 -1.649809400000000134e-02 1.195816680000000021e-01 1.008231262500000014e+01
6.073241098999999643e+00 0.000000000000000000e+00 0.000000000000000000e+00 -2.971328524000000026e+00 5.319878435999999766e+00 0.000000000000000000e+00 2.548088050000000271e-01 2.721395600000000095e-02 1.030657077000000044e+01
6.204450736000000077e+00 0.000000000000000000e+00 0.000000000000000000e+00 -3.119218270000000182e+00 5.403317079999999883e+00 0.000000000000000000e+00 1.185879279999999952e-01 3.506123099999999826e-02 1.039754261100000043e+01
6.192386241000000346e+00 0.000000000000000000e+00 0.000000000000000000e+00 -3.037673183999999971e+00 5.278123561000000130e+00 0.000000000000000000e+00 9.165942190000000434e-01 -4.544595799999999741e-01 1.090657996100000027e+01
6.130258300999999577e+00 0.000000000000000000e+00 0.000000000000000000e+00 -3.089123427000000088e+00 5.320814615999999830e+00 0.000000000000000000e+00 -6.014104499999999714e-02 3.105072409999999894e-01 1.009984877800000014e+01
6.213896532999999778e+00 0.000000000000000000e+00 0.000000000000000000e+00 -3.068986493000000149e+00 5.261323137999999844e+00 0.000000000000000000e+00 -8.495058199999999671e-02 3.881774909999999856e-01 1.008364192400000015e+01
6.166251589999999894e+00 0.000000000000000000e+00 0.000000000000000000e+00 -3.098810756999999860e+00 5.343420292000000238e+00 0.000000000000000000e+00 -4.361943979999999832e-01 2.020559530000000104e-01 1.025690244299999954e+01
6.280090920000000132e+00 0.000000000000000000e+00 0.000000000000000000e+00 -3.133532499000000193e+00 5.542177202000000413e+00 0.000000000000000000e+00 4.110633200000000237e-02 -2.627713910000000208e-01 1.034997326799999939e+01
6.252534276999999641e+00 0.000000000000000000e+00 0.000000000000000000e+00 -3.127759950000000178e+00 5.416706194999999724e+00 0.000000000000000000e+00 9.962884099999999576e-02 -6.667173399999999639e-02 1.069823368800000019e+01
6.192933739999999965e+00 0.000000000000000000e+00 0.000000000000000000e+00 -3.062461272000000179e+00 5.217738574000000185e+00 0.000000000000000000e+00 -9.707876399999999795e-02 2.670710099999999976e-01 1.026970714199999968e+01
6.196113697000000364e+00 0.000000000000000000e+00 0.000000000000000000e+00 -3.115394011999999879e+00 5.374540323999999814e+00 0.000000000000000000e+00 6.564429999999999571e-03 1.537709349999999975e-01 1.024274084700000031e+01
6.269839537000000185e+00 0.000000000000000000e+00 0.000000000000000000e+00 -3.148498297999999807e+00 5.438592276999999697e+00 0.000000000000000000e+00 -2.020599899999999879e-02 3.509258999999999989e-02 9.754129196999999252e+00
6.206627794000000087e+00 0.000000000000000000e+00 0.000000000000000000e+00 -3.183869238999999851e+00 5.462227050000000084e+00 0.000000000000000000e+00 -2.619548709999999780e-01 -5.159951200000000016e-02 1.038108871000000022e+01
6.139355263999999757e+00 0.000000000000000000e+00 0.000000000000000000e+00 -3.213173529000000084e+00 5.341109119999999599e+00 0.000000000000000000e+00 -7.758655700000000044e-02 1.287260869999999890e-01 9.874113514999999452e+00
6.166247646999999610e+00 0.000000000000000000e+00 0.000000000000000000e+00 -3.111067262000000166e+00 5.354134997000000062e+00 0.000000000000000000e+00 -4.321977000000000284e-03 1.606894130000000032e-01 1.023431658800000044e+01
6.168139559000000105e+00 0.000000000000000000e+00 0.000000000000000000e+00 -3.132034417999999931e+00 5.431264631000000342e+00 0.000000000000000000e+00 3.017343169999999741e-01 2.244720829999999889e-01 1.012056942899999967e+01
6.200714250999999955e+00 0.000000000000000000e+00 0.000000000000000000e+00 -3.114265760999999966e+00 5.384940203000000203e+00 0.000000000000000000e+00 3.843704900000000091e-02 1.454527369999999986e-01 1.041039115499999923e+01
6.240622344000000155e+00 0.000000000000000000e+00 0.000000000000000000e+00 -3.150903481999999922e+00 5.343086375000000388e+00 0.000000000000000000e+00 2.073451960000000094e-01 1.733829900000000146e-02 1.034479019700000002e+01
6.212574252999999658e+00 0.000000000000000000e+00 0.000000000000000000e+00 -3.257432468999999831e+00 5.354654169999999880e+00 0.000000000000000000e+00 -2.099718680000000059e-01 9.977678800000000514e-02 9.879185057000000825e+00
6.194999609999999990e+00 0.000000000000000000e+00 0.000000000000000000e+00 -3.145406652000000136e+00 5.359560978000000198e+00 0.000000000000000000e+00 -2.426692370000000099e-01 8.849552000000000113e-03 1.024877830600000017e+01
6.352240645000000185e+00 0.000000000000000000e+00 0.000000000000000000e+00 -3.139677187000000202e+00 5.378739155999999966e+00 0.000000000000000000e+00 -1.182499050000000024e-01 3.456468160000000234e-01 1.060796089299999956e+01
6.246697582000000359e+00 0.000000000000000000e+00 0.000000000000000000e+00 -3.072699705999999864e+00 5.372614290999999653e+00 0.000000000000000000e+00 -2.187424099999999913e-02 4.008847460000000140e-01 1.003222357199999948e+01
6.204700828000000001e+00 0.000000000000000000e+00 0.000000000000000000e+00 -3.135682382000000157e+00 5.390997550999999888e+00 0.000000000000000000e+00 1.027151939999999958e-01 8.714897000000000615e-02 1.039164457500000083e+01
6.145853201999999627e+00 0.000000000000000000e+00 0.000000000000000000e+00 -3.012179381999999794e+00 5.333132911999999948e+00 0.000000000000000000e+00 -4.861201039999999973e-01 4.476599179999999900e-01 1.008678164500000030e+01
