5.874319299999999799e+00 0.000000000000000000e+00 0.000000000000000000e+00 -2.937159649999999900e+00 5.087309849999999578e+00 0.000000000000000000e+00 0.000000000000000000e+00 0.000000000000000000e+00 9.399379800000000174e+00
5.874319299999999799e+00 0.000000000000000000e+00 0.000000000000000000e+00 -2.937159649999999900e+00 5.087309849999999578e+00 0.000000000000000000e+00 0.000000000000000000e+00 0.000000000000000000e+00 9.399379800000000174e+00
5.833305293999999641e+00 0.000000000000000000e+00 0.000000000000000000e+00 -2.856344148999999888e+00 5.038496548000000352e+00 0.000000000000000000e+00 -1.505153840000000021e-01 -2.185265000000000124e-02 9.587199645000000103e+00
5.833305293999999641e+00 0.000000000000000000e+00 0.000000000000000000e+00 -2.856344148999999888e+00 5.038496548000000352e+00 0.000000000000000000e+00 -1.505153840000000021e-01 -2.185265000000000124e-02 9.587199645000000103e+00
5.778623780000000210e+00 0.000000000000000000e+00 0.000000000000000000e+00 -2.982290533000000021e+00 5.202901261000000055e+00 0.000000000000000000e+00 2.501547120000000013e-01 -2.716961540000000230e-01 9.501444312000000281e+00
5.778623780000000210e+00 0.000000000000000000e+00 0.000000000000000000e+00 -2.982290533000000021e+00 5.202901261000000055e+00 0.000000000000000000e+00 2.501547120000000013e-01 -2.716961540000000230e-01 9.501444312000000281e+00
5.769345354000000370e+00 0.000000000000000000e+00 0.000000000000000000e+00 -2.744422364000000059e+00 5.015985249999999951e+00 0.000000000000000000e+00 -2.163706310000000077e-01 -1.026480359999999981e-01 9.136757618000000747e+00
5.769345354000000370e+00 0.000000000000000000e+00 0.000000000000000000e+00 -2.744422364000000059e+00 5.015985249999999951e+00 0.000000000000000000e+00 -2.163706310000000077e-01 -1.026480359999999981e-01 9.136757618000000747e+00
5.822247914000000080e+00 0.000000000000000000e+00 0.000000000000000000e+00 -2.907615539000000027e+00 5.202889249000000049e+00 0.000000000000000000e+00 -2.343776079999999873e-01 1.043659120000000051e-01 9.497091651999999939e+00
5.822247914000000080e+00 0.000000000000000000e+00 0.000000000000000000e+00 -2.907615539000000027e+00 5.202889249000000049e+00 0.000000000000000000e+00 -2.343776079999999873e-01 1.043659120000000051e-01 9.497091651999999939e+00
5.908907500999999840e+00 0.000000000000000000e+00 0.000000000000000000e+00 -3.101335149000000069e+00 5.045545759000000352e+00 0.000000000000000000e+00 -2.419214399999999876e-01 -2.754747479999999915e-01 9.594656203999999633e+00
5.908907500999999840e+00 0.000000000000000000e+00 0.000000000000000000e+00 -3.101335149000000069e+00 5.045545759000000352e+00 0.000000000000000000e+00 -2.419214399999999876e-01 -2.754747479999999915e-01 9.594656203999999633e+00
5.989811447000000122e+00 0.000000000000000000e+00 0.000000000000000000e+00 -2.855350975999999985e+00 5.100855215000000165e+00 0.000000000000000000e+00 1.106692449999999994e-01 -1.886271640000000138e-01 9.216896756000000579e+00
5.989811447000000122e+00 0.000000000000000000e+00 0.000000000000000000e+00 -2.855350975999999985e+00 5.100855215000000165e+00 0.000000000000000000e+00 1.106692449999999994e-01 -1.886271640000000138e-01 9.216896756000000579e+00
5.918563139999999834e+00 0.000000000000000000e+00 0.000000000000000000e+00 -2.946178541000000095e+00 5.020138420000000323e+00 0.000000000000000000e+00 2.303068540000000053e-01 1.589124249999999960e-01 9.227185167000000021e+00
5.918563139999999834e+00 0.000000000000000000e+00 0.000000000000000000e+00 -2.946178541000000095e+00 5.020138420000000323e+00 0.000000000000000000e+00 2.303068540000000053e-01 1.589124249999999960e-01 9.227185167000000021e+00
5.742224938999999750e+00 0.000000000000000000e+00 0.000000000000000000e+00 -2.969442925000000066e+00 4.984298346000000102e+00 0.000000000000000000e+00 2.964605999999999839e-03 -2.687136760000000124e-01 9.531494840000000579e+00
5.742224938999999750e+00 0.000000000000000000e+00 0.000000000000000000e+00 -2.969442925000000066e+00 4.984298346000000102e+00 0.000000000000000000e+00 2.964605999999999839e-03 -2.687136760000000124e-01 9.531494840000000579e+00
5.811256395000000019e+00 0.000000000000000000e+00 0.000000000000000000e+00 -2.772578884000000077e+00 5.207150116000000217e+00 0.000000000000000000e+00 -6.933292100000000568e-02 2.730015720000000257e-01 9.337596570000000540e+00
5.811256395000000019e+00 0.000000000000000000e+00 0.000000000000000000e+00 -2.772578884000000077e+00 5.207150116000000217e+00 0.000000000000000000e+00 -6.933292100000000568e-02 2.730015720000000257e-01 9.337596570000000540e+00
5.970026986999999785e+00 0.000000000000000000e+00 0.000000000000000000e+00 -3.095481751999999975e+00 5.162519202999999557e+00 0.000000000000000000e+00 1.238125300000000040e-01 4.099504200000000237e-02 9.179601405999999741e+00
5.970026986999999785e+00 0.000000000000000000e+00 0.000000000000000000e+00 -3.095481751999999975e+00 5.162519202999999557e+00 0.000000000000000000e+00 1.238125300000000040e-01 4.099504200000000237e-02 9.179601405999999741e+00
5.777055809000000153e+00 0.000000000000000000e+00 0.000000000000000000e+00 -2.944793134999999840e+00 5.177237255999999732e+00 0.000000000000000000e+00 -3.486218499999999693e-02 6.023387799999999764e-02 9.175925848000000329e+00
5.777055809000000153e+00 0.000000000000000000e+00 0.000000000000000000e+00 -2.944793134999999840e+00 5.177237255999999732e+00 0.000000000000000000e+00 -3.486218499999999693e-02 6.023387799999999764e-02 9.175925848000000329e+00
5.700826754000000385e+00 0.000000000000000000e+00 0.000000000000000000e+00 -2.698332392999999829e+00 5.143584277000000426e+00 0.000000000000000000e+00 1.596477839999999870e-01 -4.362304100000000129e-02 9.393572182999999853e+00
5.700826754000000385e+00 0.000000000000000000e+00 0.000000000000000000e+00 -2.698332392999999829e+00 5.143584277000000426e+00 0.000000000000000000e+00 1.596477839999999870e-01 -4.362304100000000129e-02 9.393572182999999853e+00
5.800997028000000277e+00 0.000000000000000000e+00 0.000000000000000000e+00 -2.977146108999999985e+00 5.029662549000000205e+00 0.000000000000000000e+00 2.847854140000000145e-01 -2.266388830000000132e-01 9.674751400999999973e+00
5.800997028000000277e+00 0.000000000000000000e+00 0.000000000000000000e+00 -2.977146108999999985e+00 5.029662549000000205e+00 0.000000000000000000e+00 2.847854140000000145e-01 -2.266388830000000132e-01 9.674751400999999973e+00
5.736671496999999675e+00 0.000000000000000000e+00 0.000000000000000000e+00 -2.752525739000000193e+00 5.093055003999999997e+00 0.000000000000000000e+00 -3.553404899999999811e-02 1.563895560000000129e-01 9.623504485999999858e+00
5.736671496999999675e+00 0.000000000000000000e+00 0.000000000000000000e+00 -2.752525739000000193e+00 5.093055003999999997e+00 0.000000000000000000e+00 -3.553404899999999811e-02 1.563895560000000129e-01 9.623504485999999858e+00
5.912494673000000311e+00 0.000000000000000000e+00 0.000000000000000000e+00 -2.817931976000000116e+00 5.225954100000000047e+00 0.000000000000000000e+00 -3.535079099999999946e-02 -2.272667919999999953e-01 9.181018810999999502e+00
5.912494673000000311e+00 0.000000000000000000e+00 0.000000000000000000e+00 -2.817931976000000116e+00 5.225954100000000047e+00 0.000000000000000000e+00 -3.535079099999999946e-02 -2.272667919999999953e-01 9.181018810999999502e+00
5.834958358999999817e+00 0.000000000000000000e+00 0.000000000000000000e+00 -2.988357343000000110e+00 5.047731514999999725e+00 0.000000000000000000e+00 9.452340300000000584e-02 1.355882499999999935e-01 9.155500776000000229e+00
5.834958358999999817e+00 0.000000000000000000e+00 0.000000000000000000e+00 -2.988357343000000110e+00 5.047731514999999725e+00 0.000000000000000000e+00 9.452340300000000584e-02 1.355882499999999935e-01 9.155500776000000229e+00
5.904495869999999869e+00 0.000000000000000000e+00 0.000000000000000000e+00 -3.094915900000000164e+00 4.959786538000000355e+00 0.000000000000000000e+00 8.672163800000000367e-02 -1.320321839999999969e-01 9.395008579000000637e+00
5.904495869999999869e+00 0.000000000000000000e+00 0.000000000000000000e+00 -3.094915900000000164e+00 4.959786538000000355e+00 0.000000000000000000e+00 8.672163800000000367e-02 -1.320321839999999969e-01 9.395008579000000637e+00
5.712331110000000045e+00 0.000000000000000000e+00 0.000000000000000000e+00 -2.815247745999999829e+00 5.001608130000000152e+00 0.000000000000000000e+00 2.161381480000000022e-01 -4.677528000000000241e-02 9.539665807000000441e+00
5.712331110000000045e+00 0.000000000000000000e+00 0.000000000000000000e+00 -2.815247745999999829e+00 5.001608130000000152e+00 0.000000000000000000e+00 2.161381480000000022e-01 -4.677528000000000241e-02 9.539665807000000441e+00
5.899980146999999953e+00 0.000000000000000000e+00 0.000000000000000000e+00 -2.807359560000000087e+00 5.103785614999999609e+00 0.000000000000000000e+00 -2.345551310000000000e-01 1.661180969999999923e-01 9.668534747000000706e+00
5.899980146999999953e+00 0.000000000000000000e+00 0.000000000000000000e+00 -2.807359560000000087e+00 5.103785614999999609e+00 0.000000000000000000e+00 -2.345551310000000000e-01 1.661180969999999923e-01 9.668534747000000706e+00
5.804984411000000399e+00 0.000000000000000000e+00 0.000000000000000000e+00 -2.952813814999999842e+00 5.084287029999999596e+00 0.000000000000000000e+00 -7.282019700000000317e-02 -8.352904799999999463e-02 9.463035701000000799e+00
5.804984411000000399e+00 0.000000000000000000e+00 0.000000000000000000e+00 -2.952813814999999842e+00 5.084287029999999596e+00 0.000000000000000000e+00 -7.282019700000000317e-02 -8.352904799999999463e-02 9.463035701000000799e+00
5.989896102000000333e+00 0.000000000000000000e+00 0.000000000000000000e+00 -2.914836128000000137e+00 5.037475458000000295e+00 0.000000000000000000e+00 -1.994135999999999964e-01 -2.211789520000000120e-01 9.312667777999999785e+00
5.989896102000000333e+00 0.000000000000000000e+00 0.000000000000000000e+00 -2.914836128000000137e+00 5.037475458000000295e+00 0.000000000000000000e+00 -1.994135999999999964e-01 -2.211789520000000120e-01 9.312667777999999785e+00
5.752462642000000237e+00 0.000000000000000000e+00 0.000000000000000000e+00 -2.875979544000000221e+00 5.107178825000000089e+00 0.000000000000000000e+00 -2.211937180000000114e-01 3.236653800000000025e-02 9.636193769000000131e+00
5.752462642000000237e+00 0.000000000000000000e+00 0.000000000000000000e+00 -2.875979544000000221e+00 5.107178825000000089e+00 0.000000000000000000e+00 -2.211937180000000114e-01 3.236653800000000025e-02 9.636193769000000131e+00
5.767221248000000244e+00 0.000000000000000000e+00 0.000000000000000000e+00 -2.810930447000000054e+00 5.076415969000000139e+00 0.000000000000000000e+00 2.752969519999999837e-01 -1.802271039999999991e-01 9.128467492000000405e+00
5.767221248000000244e+00 0.000000000000000000e+00 0.000000000000000000e+00 -2.810930447000000054e+00 5.076415969000000139e+00 0.000000000000000000e+00 2.752969519999999837e-01 -1.802271039999999991e-01 9.128467492000000405e+00
6.035653620999999802e+00 0.000000000000000000e+00 0.000000000000000000e+00 -3.043089750000000038e+00 5.212680454000000019e+00 0.000000000000000000e+00 -2.028923340000000075e-01 5.681404000000000142e-03 9.251677129000000832e+00
6.035653620999999802e+00 0.000000000000000000e+00 0.000000000000000000e+00 -3.043089750000000038e+00 5.212680454000000019e+00 0.000000000000000000e+00 -2.028923340000000075e-01 5.681404000000000142e-03 9.251677129000000832e+00
5.863286081000000038e+00 0.000000000000000000e+00 0.000000000000000000e+00 -2.832767427999999921e+00 5.021694000000000102e+00 0.000000000000000000e+00 -3.827645899999999879e-02 1.530514400000000108e-01 9.281058559999999957e+00
5.863286081000000038e+00 0.000000000000000000e+00 0.000000000000000000e+00 -2.832767427999999921e+00 5.021694000000000102e+00 0.000000000000000000e+00 -3.827645899999999879e-02 1.530514400000000108e-01 9.281058559999999957e+00
5.906929404000000439e+00 0.000000000000000000e+00 0.000000000000000000e+00 -2.869957063999999836e+00 5.169766791999999889e+00 0.000000000000000000e+00 -2.006596419999999992e-01 2.485427390000000125e-01 9.662874423999999962e+00
5.906929404000000439e+00 0.000000000000000000e+00 0.000000000000000000e+00 -2.869957063999999836e+00 5.169766791999999889e+00 0.000000000000000000e+00 -2.006596419999999992e-01 2.485427390000000125e-01 9.662874423999999962e+00
5.783137241000000373e+00 0.000000000000000000e+00 0.000000000000000000e+00 -2.740470293000000002e+00 4.991364030999999812e+00 0.000000000000000000e+00 -1.393008550000000012e-01 1.654720440000000126e-01 9.159920695000000279e+00
5.783137241000000373e+00 0.000000000000000000e+00 0.000000000000000000e+00 -2.740470293000000002e+00 4.991364030999999812e+00 0.000000000000000000e+00 -1.393008550000000012e-01 1.654720440000000126e-01 9.159920695000000279e+00
6.007750145000000153e+00 0.000000000000000000e+00 0.000000000000000000e+00 -3.022929148999999871e+00 5.171075485000000249e+00 0.000000000000000000e+00 -1.640326099999999954e-01 -7.882789699999999400e-02 9.651531552999999874e+00
6.007750145000000153e+00 0.000000000000000000e+00 0.000000000000000000e+00 -3.022929148999999871e+00 5.171075485000000249e+00 0.000000000000000000e+00 -1.640326099999999954e-01 -7.882789699999999400e-02 9.651531552999999874e+00
5.746757292999999933e+00 0.000000000000000000e+00 0.000000000000000000e+00 -2.936131587999999848e+00 5.193266827999999613e+00 0.000000000000000000e+00 2.134275989999999956e-01 5.201855600000000052e-02 9.647897051999999363e+00
5.746757292999999933e+00 0.000000000000000000e+00 0.000000000000000000e+00 -2.936131587999999848e+00 5.193266827999999613e+00 0.000000000000000000e+00 2.134275989999999956e-01 5.201855600000000052e-02 9.647897051999999363e+00
6.059824120000000036e+00 0.000000000000000000e+00 0.000000000000000000e+00 -3.029912060000000018e+00 5.247961740000000042e+00 0.000000000000000000e+00 0.000000000000000000e+00 0.000000000000000000e+00 9.696202319999999375e+00
6.059824120000000036e+00 0.000000000000000000e+00 0.000000000000000000e+00 -3.029912060000000018e+00 5.247961740000000042e+00 0.000000000000000000e+00 0.000000000000000000e+00 0.000000000000000000e+00 9.696202319999999375e+00
6.098001198999999595e+00 0.000000000000000000e+00 0.000000000000000000e+00 -3.192357547999999934e+00 5.162326852999999716e+00 0.000000000000000000e+00 -3.754116100000000344e-02 8.749983100000000014e-02 9.563729393999999218e+00
6.098001198999999595e+00 0.000000000000000000e+00 0.000000000000000000e+00 -3.192357547999999934e+00 5.162326852999999716e+00 0.000000000000000000e+00 -3.754116100000000344e-02 8.749983100000000014e-02 9.563729393999999218e+00
6.194837955999999757e+00 0.000000000000000000e+00 0.000000000000000000e+00 -3.109226624000000161e+00 5.094496788999999914e+00 0.000000000000000000e+00 -3.963440700000000344e-02 1.620711529999999956e-01 9.682773109999999406e+00
6.194837955999999757e+00 0.000000000000000000e+00 0.000000000000000000e+00 -3.109226624000000161e+00 5.094496788999999914e+00 0.000000000000000000e+00 -3.963440700000000344e-02 1.620711529999999956e-01 9.682773109999999406e+00
6.214225715999999622e+00 0.000000000000000000e+00 0.000000000000000000e+00 -3.106970817000000107e+00 5.287524583999999805e+00 0.000000000000000000e+00 -2.594763939999999991e-01 -1.946730620000000078e-01 9.489984585000000195e+00
6.214225715999999622e+00 0.000000000000000000e+00 0.000000000000000000e+00 -3.106970817000000107e+00 5.287524583999999805e+00 0.000000000000000000e+00 -2.594763939999999991e-01 -1.946730620000000078e-01 9.489984585000000195e+00
5.895424216000000328e+00 0.000000000000000000e+00 0.000000000000000000e+00 -2.910391564999999847e+00 5.283915948999999834e+00 0.000000000000000000e+00 2.567075269999999909e-01 -3.157163799999999909e-02 9.900833453000000617e+00
5.895424216000000328e+00 0.000000000000000000e+00 0.000000000000000000e+00 -2.910391564999999847e+00 5.283915948999999834e+00 0.000000000000000000e+00 2.567075269999999909e-01 -3.157163799999999909e-02 9.900833453000000617e+00
6.045031492999999756e+00 0.000000000000000000e+00 0.000000000000000000e+00 -2.988502466999999996e+00 5.157065270000000368e+00 0.000000000000000000e+00 3.990213499999999830e-02 1.390360939999999990e-01 9.960285774999999120e+00
6.045031492999999756e+00 0.000000000000000000e+00 0.000000000000000000e+00 -2.988502466999999996e+00 5.157065270000000368e+00 0.000000000000000000e+00 3.990213499999999830e-02 1.390360939999999990e-01 9.960285774999999120e+00
5.978097396999999980e+00 0.000000000000000000e+00 0.000000000000000000e+00 -2.851050741999999971e+00 5.139878905999999859e+00 0.000000000000000000e+00 -2.188366750000000083e-01 -3.738174300000000200e-02 9.877745328999999685e+00
5.978097396999999980e+00 0.000000000000000000e+00 0.000000000000000000e+00 -2.851050741999999971e+00 5.139878905999999859e+00 0.000000000000000000e+00 -2.188366750000000083e-01 -3.738174300000000200e-02 9.877745328999999685e+00
6.239800403000000273e+00 0.000000000000000000e+00 0.000000000000000000e+00 -3.249160731999999996e+00 5.174463084000000102e+00 0.000000000000000000e+00 -4.536766000000000236e-03 -1.294849250000000007e-01 9.759995363999999896e+00
6.239800403000000273e+00 0.000000000000000000e+00 0.000000000000000000e+00 -3.249160731999999996e+00 5.174463084000000102e+00 0.000000000000000000e+00 -4.536766000000000236e-03 -1.294849250000000007e-01 9.759995363999999896e+00
6.095472209000000419e+00 0.000000000000000000e+00 0.000000000000000000e+00 -2.961965068000000034e+00 5.106998972000000414e+00 0.000000000000000000e+00 -1.493057580000000106e-01 4.234418799999999788e-02 9.739037782000000476e+00
6.095472209000000419e+00 0.000000000000000000e+00 0.000000000000000000e+00 -2.961965068000000034e+00 5.106998972000000414e+00 0.000000000000000000e+00 -1.493057580000000106e-01 4.234418799999999788e-02 9.739037782000000476e+00
5.955541217999999581e+00 0.000000000000000000e+00 0.000000000000000000e+00 -2.921663752000000169e+00 5.344168492999999742e+00 0.000000000000000000e+00 -2.260860219999999976e-01 1.914871890000000021e-01 9.674538716000000704e+00
5.955541217999999581e+00 0.000000000000000000e+00 0.000000000000000000e+00 -2.921663752000000169e+00 5.344168492999999742e+00 0.000000000000000000e+00 -2.260860219999999976e-01 1.914871890000000021e-01 9.674538716000000704e+00
5.944106950000000111e+00 0.000000000000000000e+00 0.000000000000000000e+00 -3.033200835999999789e+00 5.187665178999999682e+00 0.000000000000000000e+00 -2.162071959999999904e-01 -2.924510020000000154e-01 9.970616951000000228e+00
5.944106950000000111e+00 0.000000000000000000e+00 0.000000000000000000e+00 -3.033200835999999789e+00 5.187665178999999682e+00 0.000000000000000000e+00 -2.162071959999999904e-01 -2.924510020000000154e-01 9.970616951000000228e+00
6.039450162999999705e+00 0.000000000000000000e+00 0.000000000000000000e+00 -2.912911658000000070e+00 5.177873091000000372e+00 0.000000000000000000e+00 8.726401599999999981e-02 -1.433647389999999910e-01 9.739373845999999446e+00
6.039450162999999705e+00 0.000000000000000000e+00 0.000000000000000000e+00 -2.912911658000000070e+00 5.177873091000000372e+00 0.000000000000000000e+00 8.726401599999999981e-02 -1.433647389999999910e-01 9.739373845999999446e+00
6.042268327999999578e+00 0.000000000000000000e+00 0.000000000000000000e+00 -2.881155022000000177e+00 5.312971689000000275e+00 0.000000000000000000e+00 8.980735400000000590e-02 1.419862950000000124e-01 9.853192659999999492e+00
6.042268327999999578e+00 0.000000000000000000e+00 0.000000000000000000e+00 -2.881155022000000177e+00 5.312971689000000275e+00 0.000000000000000000e+00 8.980735400000000590e-02 1.419862950000000124e-01 9.853192659999999492e+00
6.191384121999999657e+00 0.000000000000000000e+00 0.000000000000000000e+00 -3.120211063999999812e+00 5.235555066999999951e+00 0.000000000000000000e+00 -1.457892729999999970e-01 -7.517614599999999925e-02 9.466999703999999127e+00
6.191384121999999657e+00 0.000000000000000000e+00 0.000000000000000000e+00 -3.120211063999999812e+00 5.235555066999999951e+00 0.000000000000000000e+00 -1.457892729999999970e-01 -7.517614599999999925e-02 9.466999703999999127e+00
5.925860240999999640e+00 0.000000000000000000e+00 0.000000000000000000e+00 -3.001798384999999847e+00 5.300994829999999602e+00 0.000000000000000000e+00 5.476632099999999975e-02 -1.205379599999999995e-01 9.577441393999999164e+00
5.925860240999999640e+00 0.000000000000000000e+00 0.000000000000000000e+00 -3.001798384999999847e+00 5.300994829999999602e+00 0.000000000000000000e+00 5.476632099999999975e-02 -1.205379599999999995e-01 9.577441393999999164e+00
6.035619410999999879e+00 0.000000000000000000e+00 0.000000000000000000e+00 -3.160521553999999789e+00 5.369186513999999910e+00 0.000000000000000000e+00 -1.689635009999999882e-01 1.328943870000000027e-01 9.644173982999999950e+00
6.035619410999999879e+00 0.000000000000000000e+00 0.000000000000000000e+00 -3.160521553999999789e+00 5.369186513999999910e+00 0.000000000000000000e+00 -1.689635009999999882e-01 1.328943870000000027e-01 9.644173982999999950e+00
6.191942502999999931e+00 0.000000000000000000e+00 0.000000000000000000e+00 -3.177481661999999929e+00 5.126861339000000406e+00 0.000000000000000000e+00 1.037177360000000048e-01 2.005143759999999942e-01 9.980373709000000204e+00
6.191942502999999931e+00 0.000000000000000000e+00 0.000000000000000000e+00 -3.177481661999999929e+00 5.126861339000000406e+00 0.000000000000000000e+00 1.037177360000000048e-01 2.005143759999999942e-01 9.980373709000000204e+00
6.072372868000000423e+00 0.000000000000000000e+00 0.000000000000000000e+00 -2.984589075999999785e+00 5.130875779000000136e+00 0.000000000000000000e+00 -1.946668549999999998e-01 -2.000641979999999986e-01 9.624454948000000343e+00
6.072372868000000423e+00 0.000000000000000000e+00 0.000000000000000000e+00 -2.984589075999999785e+00 5.130875779000000136e+00 0.000000000000000000e+00 -1.946668549999999998e-01 -2.000641979999999986e-01 9.624454948000000343e+00
6.096852808999999596e+00 0.000000000000000000e+00 0.000000000000000000e+00 -3.097565582000000095e+00 5.255110424999999807e+00 0.000000000000000000e+00 -4.213554900000000131e-02 1.081394080000000063e-01 9.887965639000000806e+00
6.096852808999999596e+00 0.000000000000000000e+00 0.000000000000000000e+00 -3.097565582000000095e+00 5.255110424999999807e+00 0.000000000000000000e+00 -4.213554900000000131e-02 1.081394080000000063e-01 9.887965639000000806e+00
6.153895869000000296e+00 0.000000000000000000e+00 0.000000000000000000e+00 -3.197750112000000033e+00 5.255876457000000279e+00 0.000000000000000000e+00 -2.046098869999999903e-01 -4.785527700000000162e-02 9.598501531000000142e+00
6.153895869000000296e+00 0.000000000000000000e+00 0.000000000000000000e+00 -3.197750112000000033e+00 5.255876457000000279e+00 0.000000000000000000e+00 -2.046098869999999903e-01 -4.785527700000000162e-02 9.598501531000000142e+00
5.913740270999999993e+00 0.000000000000000000e+00 0.000000000000000000e+00 -2.899504531999999912e+00 5.093738462000000133e+00 0.000000000000000000e+00 -2.322012240000000116e-01 -1.570319589999999987e-01 9.412055547999999661e+00
5.913740270999999993e+00 0.000000000000000000e+00 0.000000000000000000e+00 -2.899504531999999912e+00 5.093738462000000133e+00 0.000000000000000000e+00 -2.322012240000000116e-01 -1.570319589999999987e-01 9.412055547999999661e+00
5.966835708999999710e+00 0.000000000000000000e+00 0.000000000000000000e+00 -2.842247872000000175e+00 5.210123797999999695e+00 0.000000000000000000e+00 2.312779630000000031e-01 1.825881639999999972e-01 9.580914668000000134e+00
5.966835708999999710e+00 0.000000000000000000e+00 0.000000000000000000e+00 -2.842247872000000175e+00 5.210123797999999695e+00 0.000000000000000000e+00 2.312779630000000031e-01 1.825881639999999972e-01 9.580914668000000134e+00
6.090352958000000427e+00 0.000000000000000000e+00 0.000000000000000000e+00 -3.034371623000000184e+00 5.378668772000000153e+00 0.000000000000000000e+00 2.423714250000000014e-01 1.778905060000000038e-01 9.856841554000000727e+00
6.090352958000000427e+00 0.000000000000000000e+00 0.000000000000000000e+00 -3.034371623000000184e+00 5.378668772000000153e+00 0.000000000000000000e+00 2.423714250000000014e-01 1.778905060000000038e-01 9.856841554000000727e+00
6.148278073000000177e+00 0.000000000000000000e+00 0.000000000000000000e+00 -3.184504843000000029e+00 5.187217856000000182e+00 0.000000000000000000e+00 1.152639780000000030e-01 -1.702692660000000024e-01 9.706344593000000742e+00
6.148278073000000177e+00 0.000000000000000000e+00 0.000000000000000000e+00 -3.184504843000000029e+00 5.187217856000000182e+00 0.000000000000000000e+00 1.152639780000000030e-01 -1.702692660000000024e-01 9.706344593000000742e+00
6.048534552999999647e+00 0.000000000000000000e+00 0.000000000000000000e+00 -2.979334152999999930e+00 5.289469921000000241e+00 0.000000000000000000e+00 1.779362849999999996e-01 2.179755459999999923e-01 9.794838455000000721e+00
6.048534552999999647e+00 0.000000000000000000e+00 0.000000000000000000e+00 -2.979334152999999930e+00 5.289469921000000241e+00 0.000000000000000000e+00 1.779362849999999996e-01 2.179755459999999923e-01 9.794838455000000721e+00
6.063727482000000002e+00 0.000000000000000000e+00 0.000000000000000000e+00 -3.134919324999999812e+00 5.256663672000000176e+00 0.000000000000000000e+00 -2.417143730000000101e-01 8.490655399999999520e-02 9.423594402000000869e+00
6.063727482000000002e+00 0.000000000000000000e+00 0.000000000000000000e+00 -3.134919324999999812e+00 5.256663672000000176e+00 0.000000000000000000e+00 -2.417143730000000101e-01 8.490655399999999520e-02 9.423594402000000869e+00
6.048867656999999731e+00 0.000000000000000000e+00 0.000000000000000000e+00 -2.989092417000000168e+00 5.384008537999999788e+00 0.000000000000000000e+00 -1.479267589999999910e-01 -1.015449949999999990e-01 9.475320432000000181e+00
6.048867656999999731e+00 0.000000000000000000e+00 0.000000000000000000e+00 -2.989092417000000168e+00 5.384008537999999788e+00 0.000000000000000000e+00 -1.479267589999999910e-01 -1.015449949999999990e-01 9.475320432000000181e+00
5.894068283000000186e+00 0.000000000000000000e+00 0.000000000000000000e+00 -2.836095058000000169e+00 5.343814190999999880e+00 0.000000000000000000e+00 -2.603590270000000206e-01 -2.804507849999999802e-01 9.753281338000000744e+00
5.894068283000000186e+00 0.000000000000000000e+00 0.000000000000000000e+00 -2.836095058000000169e+00 5.343814190999999880e+00 0.000000000000000000e+00 -2.603590270000000206e-01 -2.804507849999999802e-01 9.753281338000000744e+00
6.183727296999999901e+00 0.000000000000000000e+00 0.000000000000000000e+00 -3.092693525000000054e+00 5.263081185999999967e+00 0.000000000000000000e+00 6.762640200000000212e-02 -1.960943639999999932e-01 9.613795211999999424e+00
6.183727296999999901e+00 0.000000000000000000e+00 0.000000000000000000e+00 -3.092693525000000054e+00 5.263081185999999967e+00 0.000000000000000000e+00 6.762640200000000212e-02 -1.960943639999999932e-01 9.613795211999999424e+00
5.947930475999999800e+00 0.000000000000000000e+00 0.000000000000000000e+00 -2.945875758000000122e+00 5.192131027000000287e+00 0.000000000000000000e+00 1.778769499999999920e-02 -2.508515150000000249e-01 9.799679933000000176e+00
5.947930475999999800e+00 0.000000000000000000e+00 0.000000000000000000e+00 -2.945875758000000122e+00 5.192131027000000287e+00 0.000000000000000000e+00 1.778769499999999920e-02 -2.508515150000000249e-01 9.799679933000000176e+00
6.183493999999999602e+00 0.000000000000000000e+00 0.000000000000000000e+00 -3.091746999999999801e+00 5.355063000000000351e+00 0.000000000000000000e+00 0.000000000000000000e+00 0.000000000000000000e+00 9.894083999999999435e+00
6.183493999999999602e+00 0.000000000000000000e+00 0.000000000000000000e+00 -3.091746999999999801e+00 5.355063000000000351e+00 0.000000000000000000e+00 0.000000000000000000e+00 0.000000000000000000e+00 9.894083999999999435e+00
6.015882578000000258e+00 0.000000000000000000e+00 0.000000000000000000e+00 -3.080896306000000084e+00 5.505325830000000309e+00 0.000000000000000000e+00 -2.108609720000000076e-01 -1.668280249999999909e-01 1.003810902700000085e+01
6.015882578000000258e+00 0.000000000000000000e+00 0.000000000000000000e+00 -3.080896306000000084e+00 5.505325830000000309e+00 0.000000000000000000e+00 -2.108609720000000076e-01 -1.668280249999999909e-01 1.003810902700000085e+01
6.109886747000000007e+00 0.000000000000000000e+00 0.000000000000000000e+00 -2.901273943000000077e+00 5.224752000999999701e+00 0.000000000000000000e+00 -1.130099539999999958e-01 -3.798520799999999947e-02 9.962721674999999166e+00
6.109886747000000007e+00 0.000000000000000000e+00 0.000000000000000000e+00 -2.901273943000000077e+00 5.224752000999999701e+00 0.000000000000000000e+00 -1.130099539999999958e-01 -3.798520799999999947e-02 9.962721674999999166e+00
6.245164568999999943e+00 0.000000000000000000e+00 0.000000000000000000e+00 -3.087215953999999929e+00 5.352808448000000219e+00 0.000000000000000000e+00 1.863003450000000061e-01 -1.809808820000000096e-01 1.004801083299999931e+01
6.245164568999999943e+00 0.000000000000000000e+00 0.000000000000000000e+00 -3.087215953999999929e+00 5.352808448000000219e+00 0.000000000000000000e+00 1.863003450000000061e-01 -1.809808820000000096e-01 1.004801083299999931e+01
6.130573397000000035e+00 0.000000000000000000e+00 0.000000000000000000e+00 -2.951217473999999896e+00 5.415630218000000440e+00 0.000000000000000000e+00 -2.154415030000000064e-01 -2.097647659999999914e-01 9.727339435999999395e+00
6.130573397000000035e+00 0.000000000000000000e+00 0.000000000000000000e+00 -2.951217473999999896e+00 5.415630218000000440e+00 0.000000000000000000e+00 -2.154415030000000064e-01 -2.097647659999999914e-01 9.727339435999999395e+00
6.215032408999999980e+00 0.000000000000000000e+00 0.000000000000000000e+00 -3.221268842000000188e+00 5.309619913999999774e+00 0.000000000000000000e+00 -1.375515429999999983e-01 8.007130699999999435e-02 9.928943081999999976e+00
6.215032408999999980e+00 0.000000000000000000e+00 0.000000000000000000e+00 -3.221268842000000188e+00 5.309619913999999774e+00 0.000000000000000000e+00 -1.375515429999999983e-01 8.007130699999999435e-02 9.928943081999999976e+00