1.468579999999999997e+00 8.478900000000000325e-01 4.140469999999999651e+00 1.468579999999999997e+00 8.478900000000000325e-01 8.840159999999999130e+00 0.000000000000000000e+00 3.391539999999999999e+00 4.140469999999999651e+00 0.000000000000000000e+00 3.391539999999999999e+00 8.840159999999999130e+00 4.405739999999999768e+00 8.478900000000000325e-01 4.140469999999999651e+00 4.405739999999999768e+00 8.478900000000000325e-01 8.840159999999999130e+00 2.937159999999999993e+00 3.391539999999999999e+00 4.140469999999999651e+00 2.937159999999999993e+00 3.391539999999999999e+00 8.840159999999999130e+00 0.000000000000000000e+00 1.695770000000000000e+00 1.790629999999999944e+00 0.000000000000000000e+00 1.695770000000000000e+00 6.490319999999999645e+00 -1.468579999999999997e+00 4.239419999999999966e+00 1.790629999999999944e+00 -1.468579999999999997e+00 4.239419999999999966e+00 6.490319999999999645e+00 2.937159999999999993e+00 1.695770000000000000e+00 1.790629999999999944e+00 2.937159999999999993e+00 1.695770000000000000e+00 6.490319999999999645e+00 1.468579999999999997e+00 4.239419999999999966e+00 1.790629999999999944e+00 1.468579999999999997e+00 4.239419999999999966e+00 6.490319999999999645e+00 1.468579999999999997e+00 8.478900000000000325e-01 2.345099999999999962e+00 1.468579999999999997e+00 8.478900000000000325e-01 7.044789999999999885e+00 0.000000000000000000e+00 3.391539999999999999e+00 2.345099999999999962e+00 0.000000000000000000e+00 3.391539999999999999e+00 7.044789999999999885e+00 4.405739999999999768e+00 8.478900000000000325e-01 2.345099999999999962e+00 4.405739999999999768e+00 8.478900000000000325e-01 7.044789999999999885e+00 2.937159999999999993e+00 3.391539999999999999e+00 2.345099999999999962e+00 2.937159999999999993e+00 3.391539999999999999e+00 7.044789999999999885e+00 0.000000000000000000e+00 1.695770000000000000e+00 4.694939999999999891e+00 0.000000000000000000e+00 1.695770000000000000e+00 9.394629999999999370e+00 -1.468579999999999997e+00 4.239419999999999966e+00 4.694939999999999891e+00 -1.468579999999999997e+00 4.239419999999999966e+00 9.394629999999999370e+00 2.937159999999999993e+00 1.695770000000000000e+00 4.694939999999999891e+00 2.937159999999999993e+00 1.695770000000000000e+00 9.394629999999999370e+00 1.468579999999999997e+00 4.239419999999999966e+00 4.694939999999999891e+00 1.468579999999999997e+00 4.239419999999999966e+00 9.394629999999999370e+00
1.465540000000000065e+00 8.476099999999999746e-01 4.140640000000000320e+00 1.468949999999999978e+00 8.503100000000000103e-01 8.840769999999999129e+00 4.400000000000000157e-04 3.393479999999999830e+00 4.138779999999999681e+00 -1.199999999999999895e-03 3.395439999999999792e+00 8.841839999999999478e+00 4.406270000000000131e+00 8.527099999999999680e-01 4.139490000000000336e+00 4.406310000000000393e+00 8.480100000000000415e-01 8.839199999999999946e+00 2.939220000000000166e+00 3.389219999999999899e+00 4.140909999999999869e+00 2.936960000000000015e+00 3.389979999999999993e+00 8.837049999999999628e+00 -3.229999999999999798e-03 1.696530000000000094e+00 1.790319999999999911e+00 3.429999999999999889e-03 1.696700000000000097e+00 6.491959999999999731e+00 -1.467799999999999994e+00 4.236869999999999692e+00 1.792389999999999928e+00 -1.462530000000000108e+00 4.240249999999999631e+00 6.490750000000000242e+00 2.934039999999999981e+00 1.694970000000000088e+00 1.790869999999999962e+00 2.931160000000000210e+00 1.694600000000000106e+00 6.488400000000000389e+00 1.466790000000000038e+00 4.240940000000000154e+00 1.794079999999999897e+00 1.467719999999999914e+00 4.238739999999999952e+00 6.491010000000000169e+00 1.467079999999999940e+00 8.457900000000000418e-01 2.345219999999999860e+00 1.467379999999999907e+00 8.475099999999999856e-01 7.045729999999999826e+00 -1.800000000000000113e-04 3.390480000000000160e+00 2.345130000000000159e+00 -1.110000000000000092e-03 3.392139999999999933e+00 7.044800000000000395e+00 4.404560000000000031e+00 8.455099999999999838e-01 2.347280000000000033e+00 4.406360000000000277e+00 8.481999999999999540e-01 7.044139999999999624e+00 2.936059999999999892e+00 3.391840000000000188e+00 2.344580000000000108e+00 2.939950000000000063e+00 3.392780000000000129e+00 7.042029999999999568e+00 2.399999999999999790e-03 1.693330000000000002e+00 4.691950000000000287e+00 -1.479999999999999979e-03 1.696379999999999999e+00 9.395099999999999341e+00 -1.466769999999999907e+00 4.240400000000000169e+00 4.695820000000000327e+00 -1.468869999999999898e+00 4.239419999999999966e+00 9.395139999999999603e+00 2.936650000000000205e+00 1.695300000000000029e+00 4.696039999999999992e+00 2.938210000000000210e+00 1.696870000000000100e+00 9.391579999999999373e+00 1.470059999999999922e+00 4.238859999999999850e+00 4.696930000000000049e+00 1.469700000000000006e+00 4.239559999999999995e+00 9.395310000000000272e+00
1.402109999999999967e+00 8.291600000000000081e-01 4.222039999999999793e+00 1.324279999999999902e+00 8.227700000000000014e-01 9.021610000000000795e+00 -2.472999999999999851e-02 3.349790000000000045e+00 4.226580000000000226e+00 -1.003799999999999970e-01 3.340749999999999886e+00 9.020860000000000767e+00 4.317639999999999922e+00 8.312100000000000044e-01 4.221260000000000012e+00 4.242379999999999818e+00 8.208100000000000396e-01 9.018909999999999982e+00 2.892999999999999794e+00 3.351150000000000073e+00 4.222599999999999909e+00 2.815179999999999794e+00 3.339290000000000092e+00 9.018159999999999954e+00 -1.250000000000000069e-02 1.680209999999999981e+00 1.822659999999999947e+00 -8.147000000000000075e-02 1.661629999999999940e+00 6.616249999999999964e+00 -1.436830000000000052e+00 4.198649999999999771e+00 1.824570000000000025e+00 -1.511660000000000004e+00 4.189429999999999765e+00 6.625980000000000203e+00 2.902050000000000018e+00 1.677580000000000071e+00 1.824740000000000029e+00 2.832469999999999821e+00 1.668330000000000091e+00 6.615890000000000271e+00 1.480140000000000011e+00 4.194619999999999571e+00 1.826449999999999907e+00 1.402390000000000025e+00 4.191349999999999909e+00 6.620120000000000005e+00 1.429289999999999949e+00 8.277999999999999803e-01 2.394589999999999996e+00 1.350740000000000052e+00 8.287700000000000067e-01 7.181589999999999918e+00 2.680000000000000090e-03 3.353499999999999925e+00 2.391890000000000072e+00 -6.952999999999999459e-02 3.345660000000000078e+00 7.190179999999999794e+00 4.351630000000000109e+00 8.360499999999999599e-01 2.389310000000000045e+00 4.263980000000000103e+00 8.233099999999999863e-01 7.189560000000000173e+00 2.915350000000000108e+00 3.348209999999999908e+00 2.387070000000000025e+00 2.842680000000000096e+00 3.344019999999999992e+00 7.183699999999999974e+00 -5.505000000000000171e-02 1.664190000000000058e+00 4.793490000000000251e+00 -1.358000000000000040e-01 1.658060000000000089e+00 9.584920000000000329e+00 -1.485770000000000035e+00 4.186060000000000336e+00 4.788680000000000270e+00 -1.558089999999999975e+00 4.174619999999999997e+00 9.581149999999999167e+00 2.859680000000000000e+00 1.668029999999999902e+00 4.797410000000000174e+00 2.785979999999999901e+00 1.664130000000000109e+00 9.580999999999999517e+00 1.437319999999999931e+00 4.192910000000000359e+00 4.781320000000000014e+00 1.357399999999999940e+00 4.177159999999999762e+00 9.582010000000000360e+00
1.404179999999999984e+00 8.352500000000000480e-01 4.224450000000000038e+00 1.323879999999999946e+00 8.213500000000000245e-01 9.020250000000000767e+00 -2.605999999999999983e-02 3.349540000000000184e+00 4.229309999999999903e+00 -9.873999999999999444e-02 3.339669999999999916e+00 9.021420000000000883e+00 4.316329999999999778e+00 8.294700000000000406e-01 4.222970000000000113e+00 4.240129999999999733e+00 8.219400000000000039e-01 9.021010000000000417e+00 2.894909999999999872e+00 3.349639999999999951e+00 4.220469999999999722e+00 2.810389999999999944e+00 3.335669999999999913e+00 9.019809999999999661e+00 -1.139000000000000082e-02 1.678020000000000067e+00 1.821830000000000060e+00 -8.411000000000000421e-02 1.659999999999999920e+00 6.615009999999999835e+00 -1.435009999999999897e+00 4.195269999999999833e+00 1.825280000000000014e+00 -1.510359999999999925e+00 4.189110000000000333e+00 6.621760000000000090e+00 2.902320000000000011e+00 1.675939999999999985e+00 1.826009999999999911e+00 2.829600000000000115e+00 1.667350000000000110e+00 6.616080000000000183e+00 1.479589999999999961e+00 4.195899999999999963e+00 1.825390000000000068e+00 1.404770000000000074e+00 4.188749999999999751e+00 6.621669999999999945e+00 1.428889999999999993e+00 8.282300000000000217e-01 2.394249999999999989e+00 1.351739999999999942e+00 8.303399999999999670e-01 7.182830000000000048e+00 5.459999999999999576e-03 3.352990000000000137e+00 2.393679999999999808e+00 -6.827999999999999348e-02 3.345920000000000005e+00 7.190699999999999648e+00 4.353559999999999874e+00 8.360899999999999999e-01 2.389660000000000117e+00 4.263860000000000205e+00 8.254200000000000426e-01 7.188240000000000407e+00 2.913689999999999891e+00 3.349279999999999813e+00 2.386610000000000120e+00 2.841769999999999907e+00 3.346499999999999808e+00 7.180920000000000414e+00 -5.401000000000000245e-02 1.662009999999999987e+00 4.791730000000000267e+00 -1.385500000000000065e-01 1.658919999999999950e+00 9.583859999999999602e+00 -1.486550000000000038e+00 4.185929999999999929e+00 4.788890000000000313e+00 -1.556449999999999889e+00 4.173650000000000304e+00 9.579359999999999431e+00 2.859410000000000007e+00 1.665780000000000038e+00 4.799070000000000391e+00 2.786830000000000140e+00 1.666660000000000030e+00 9.580080000000000595e+00 1.436090000000000089e+00 4.194460000000000299e+00 4.780879999999999797e+00 1.356919999999999904e+00 4.177469999999999573e+00 9.585000000000000853e+00
1.539779999999999927e+00 7.526399999999999757e-01 4.189440000000000275e+00 1.661850000000000049e+00 6.123100000000000209e-01 8.937039999999999651e+00 4.816999999999999754e-02 3.348930000000000184e+00 4.185469999999999580e+00 1.757299999999999973e-01 3.210980000000000167e+00 8.936230000000000118e+00 4.426689999999999792e+00 7.470700000000000118e-01 4.183959999999999901e+00 4.555640000000000356e+00 6.134199999999999653e-01 8.935930000000000817e+00 2.933429999999999982e+00 3.349270000000000191e+00 4.184569999999999901e+00 3.062730000000000175e+00 3.216870000000000118e+00 8.936790000000000234e+00 1.678999999999999937e-02 1.682439999999999936e+00 1.810130000000000017e+00 1.408500000000000030e-01 1.551549999999999985e+00 6.558329999999999771e+00 -1.473289999999999988e+00 4.289430000000000298e+00 1.804789999999999894e+00 -1.348610000000000086e+00 4.147710000000000008e+00 6.560260000000000424e+00 2.906480000000000175e+00 1.676630000000000065e+00 1.815409999999999968e+00 3.026689999999999880e+00 1.549779999999999935e+00 6.566740000000000244e+00 1.413820000000000077e+00 4.284830000000000361e+00 1.808810000000000029e+00 1.540159999999999973e+00 4.153470000000000439e+00 6.554070000000000285e+00 1.494019999999999904e+00 8.046299999999999564e-01 2.370870000000000033e+00 1.617240000000000011e+00 6.638800000000000257e-01 7.121879999999999988e+00 8.800000000000000313e-04 3.397940000000000182e+00 2.371100000000000207e+00 1.296899999999999997e-01 3.268200000000000216e+00 7.124159999999999826e+00 4.379430000000000156e+00 8.010800000000000143e-01 2.368910000000000071e+00 4.503330000000000055e+00 6.583099999999999508e-01 7.120540000000000092e+00 2.884430000000000049e+00 3.395410000000000039e+00 2.368829999999999991e+00 3.015229999999999855e+00 3.265320000000000000e+00 7.121480000000000032e+00 9.558999999999999442e-02 1.595339999999999980e+00 4.749189999999999579e+00 2.172800000000000009e-01 1.457570000000000032e+00 9.497170000000000556e+00 -1.394980000000000109e+00 4.197189999999999976e+00 4.749060000000000059e+00 -1.270459999999999923e+00 4.060159999999999769e+00 9.500170000000000670e+00 2.991049999999999986e+00 1.599590000000000067e+00 4.741410000000000124e+00 3.111540000000000195e+00 1.465359999999999996e+00 9.495789999999999509e+00 1.500110000000000054e+00 4.205869999999999997e+00 4.746410000000000018e+00 1.365429999999999922e+00 4.332810000000000272e+00 3.919999999999999873e-03
1.540499999999999980e+00 7.523300000000000542e-01 4.191259999999999764e+00 1.661440000000000028e+00 6.099200000000000177e-01 8.934710000000000818e+00 4.556999999999999940e-02 3.349509999999999987e+00 4.186060000000000336e+00 1.736999999999999933e-01 3.209360000000000213e+00 8.934020000000000294e+00 4.427069999999999617e+00 7.431600000000000428e-01 4.182549999999999990e+00 4.554420000000000357e+00 6.156199999999999450e-01 8.936579999999999302e+00 2.932830000000000048e+00 3.349870000000000125e+00 4.187400000000000233e+00 3.062310000000000088e+00 3.217909999999999826e+00 8.934559999999999391e+00 1.873999999999999971e-02 1.681950000000000056e+00 1.811239999999999961e+00 1.376199999999999923e-01 1.552759999999999918e+00 6.560769999999999769e+00 -1.471799999999999997e+00 4.290320000000000356e+00 1.802570000000000006e+00 -1.350770000000000026e+00 4.145990000000000286e+00 6.558300000000000018e+00 2.909419999999999895e+00 1.676870000000000083e+00 1.811690000000000023e+00 3.026600000000000179e+00 1.551860000000000017e+00 6.564829999999999721e+00 1.411100000000000021e+00 4.286310000000000286e+00 1.810359999999999969e+00 1.537300000000000111e+00 4.148430000000000284e+00 6.549360000000000070e+00 1.495819999999999927e+00 8.054299999999999793e-01 2.372809999999999864e+00 1.618579999999999908e+00 6.669000000000000483e-01 7.122600000000000264e+00 -1.420000000000000038e-03 3.398779999999999912e+00 2.370979999999999865e+00 1.294700000000000017e-01 3.268400000000000194e+00 7.125339999999999563e+00 4.380539999999999878e+00 8.022500000000000187e-01 2.370319999999999983e+00 4.504089999999999705e+00 6.580000000000000293e-01 7.120009999999999728e+00 2.884250000000000203e+00 3.397139999999999826e+00 2.370379999999999932e+00 3.017059999999999853e+00 3.263389999999999791e+00 7.121760000000000090e+00 9.364000000000000101e-02 1.596629999999999994e+00 4.747650000000000148e+00 2.204699999999999993e-01 1.459489999999999954e+00 9.497640000000000526e+00 -1.395639999999999992e+00 4.195490000000000386e+00 4.748879999999999768e+00 -1.271120000000000028e+00 4.060780000000000278e+00 9.499750000000000583e+00 2.988890000000000047e+00 1.598859999999999948e+00 4.740310000000000024e+00 3.112519999999999953e+00 1.464909999999999934e+00 9.496059999999999945e+00 1.502930000000000099e+00 4.202149999999999608e+00 4.747300000000000075e+00 1.365380000000000038e+00 4.332749999999999879e+00 5.159999999999999656e-03
1.372360000000000024e+00 7.863999999999999879e-01 4.022400000000000198e+00 1.260499999999999954e+00 7.346500000000000252e-01 8.593769999999999243e+00 2.490000000000000026e-03 3.291840000000000099e+00 4.021840000000000082e+00 -1.114699999999999996e-01 3.244419999999999860e+00 8.596750000000000114e+00 4.260399999999999743e+00 7.964299999999999713e-01 4.018629999999999924e+00 4.143189999999999706e+00 7.452400000000000135e-01 8.595800000000000551e+00 2.886839999999999851e+00 3.302639999999999798e+00 4.021160000000000068e+00 2.772279999999999855e+00 3.253319999999999990e+00 8.600669999999999149e+00 1.049999999999999935e-03 1.650700000000000056e+00 1.741500000000000048e+00 -9.446000000000000230e-02 1.602170000000000094e+00 6.303709999999999702e+00 -1.372309999999999919e+00 4.163820000000000299e+00 1.738320000000000087e+00 -1.473889999999999922e+00 4.108909999999999840e+00 6.308530000000000193e+00 2.890839999999999854e+00 1.652670000000000083e+00 1.739950000000000108e+00 2.781519999999999992e+00 1.605310000000000015e+00 6.300069999999999837e+00 1.517500000000000071e+00 4.160870000000000068e+00 1.740930000000000089e+00 1.413569999999999993e+00 4.116240000000000343e+00 6.314090000000000202e+00 1.413699999999999957e+00 8.102800000000000002e-01 2.281120000000000037e+00 1.305940000000000101e+00 7.587899999999999645e-01 6.845299999999999940e+00 3.819999999999999785e-02 3.317340000000000177e+00 2.281239999999999934e+00 -7.320999999999999730e-02 3.271160000000000068e+00 6.840429999999999566e+00 4.297509999999999941e+00 8.098300000000000498e-01 2.279189999999999827e+00 4.187310000000000088e+00 7.576600000000000001e-01 6.849719999999999587e+00 2.924160000000000093e+00 3.318729999999999958e+00 2.279869999999999841e+00 2.817110000000000003e+00 3.269060000000000077e+00 6.847389999999999866e+00 -6.149999999999999911e-02 1.620389999999999997e+00 4.563710000000000377e+00 -1.666499999999999926e-01 1.571830000000000060e+00 9.136210000000000164e+00 -1.432830000000000048e+00 4.126470000000000304e+00 4.560749999999999638e+00 -1.545530000000000070e+00 4.082180000000000142e+00 9.126540000000000319e+00 2.822499999999999787e+00 1.615879999999999983e+00 4.560909999999999798e+00 2.717639999999999834e+00 1.565110000000000001e+00 9.128119999999999123e+00 1.456360000000000099e+00 4.128569999999999851e+00 4.558449999999999669e+00 1.343159999999999910e+00 4.077549999999999564e+00 9.131930000000000547e+00
1.371599999999999930e+00 7.834200000000000053e-01 4.019180000000000419e+00 1.258850000000000025e+00 7.367099999999999760e-01 8.593809999999999505e+00 5.360000000000000181e-03 3.291119999999999823e+00 4.023200000000000109e+00 -1.116499999999999992e-01 3.244460000000000122e+00 8.593939999999999912e+00 4.258289999999999687e+00 7.988800000000000345e-01 4.019779999999999909e+00 4.143080000000000318e+00 7.465600000000000014e-01 8.595349999999999824e+00 2.887830000000000119e+00 3.301590000000000025e+00 4.021160000000000068e+00 2.771079999999999988e+00 3.254760000000000097e+00 8.603859999999999175e+00 1.990000000000000015e-03 1.651540000000000008e+00 1.741640000000000077e+00 -9.410000000000000309e-02 1.602360000000000007e+00 6.300849999999999618e+00 -1.373220000000000107e+00 4.164119999999999600e+00 1.743379999999999930e+00 -1.475410000000000110e+00 4.107820000000000249e+00 6.308530000000000193e+00 2.892240000000000144e+00 1.651559999999999917e+00 1.738070000000000004e+00 2.779450000000000198e+00 1.603820000000000023e+00 6.302179999999999893e+00 1.518459999999999921e+00 4.164909999999999890e+00 1.739840000000000053e+00 1.410469999999999891e+00 4.115499999999999936e+00 6.314650000000000318e+00 1.413489999999999913e+00 8.092700000000000449e-01 2.282439999999999802e+00 1.304720000000000102e+00 7.578399999999999581e-01 6.843119999999999870e+00 4.155999999999999972e-02 3.317009999999999792e+00 2.280079999999999885e+00 -7.145999999999999575e-02 3.272299999999999986e+00 6.840860000000000163e+00 4.296899999999999942e+00 8.114799999999999791e-01 2.276170000000000027e+00 4.188979999999999926e+00 7.566000000000000503e-01 6.848119999999999763e+00 2.922099999999999920e+00 3.320829999999999949e+00 2.279360000000000053e+00 2.818119999999999958e+00 3.270280000000000076e+00 6.847310000000000230e+00 -6.327000000000000679e-02 1.616810000000000080e+00 4.565430000000000099e+00 4.911999999999999700e-02 1.672789999999999999e+00 1.700000000000000122e-04 -1.433859999999999912e+00 4.126960000000000406e+00 4.561049999999999827e+00 -1.544729999999999936e+00 4.079030000000000378e+00 9.125500000000000611e+00 2.823109999999999786e+00 1.619240000000000013e+00 4.560649999999999871e+00 2.718919999999999781e+00 1.564159999999999995e+00 9.129390000000000782e+00 1.454339999999999966e+00 4.130049999999999777e+00 4.561860000000000248e+00 1.345380000000000020e+00 4.077009999999999579e+00 9.131940000000000168e+00
1.352190000000000003e+00 9.113900000000000334e-01 4.182959999999999567e+00 1.233880000000000088e+00 9.659299999999999553e-01 8.933550000000000324e+00 -9.948999999999999511e-02 3.514339999999999797e+00 4.184999999999999609e+00 -2.122300000000000020e-01 3.564849999999999852e+00 8.935309999999999420e+00 4.262959999999999638e+00 9.133700000000000152e-01 4.182640000000000136e+00 4.141339999999999577e+00 9.688299999999999690e-01 8.931570000000000675e+00 2.805250000000000021e+00 3.511740000000000084e+00 4.181440000000000268e+00 2.693550000000000111e+00 3.566279999999999895e+00 8.932859999999999800e+00 -3.756999999999999923e-02 1.755970000000000031e+00 1.811239999999999961e+00 -1.606400000000000050e-01 1.802499999999999991e+00 6.553329999999999878e+00 -1.499919999999999920e+00 4.352890000000000370e+00 1.806210000000000093e+00 -1.613299999999999956e+00 4.407029999999999781e+00 6.558950000000000280e+00 2.864129999999999843e+00 1.758930000000000105e+00 1.807169999999999943e+00 2.749719999999999942e+00 1.804230000000000000e+00 6.561499999999999666e+00 1.412719999999999976e+00 4.351840000000000153e+00 1.813020000000000076e+00 1.295449999999999990e+00 4.406259999999999621e+00 6.558900000000000396e+00 1.404979999999999896e+00 8.867899999999999672e-01 2.369470000000000187e+00 1.278170000000000028e+00 9.507400000000000295e-01 7.125350000000000072e+00 -5.322999999999999954e-02 3.497799999999999798e+00 2.373510000000000009e+00 -1.807999999999999885e-01 3.548729999999999940e+00 7.116880000000000095e+00 4.309379999999999988e+00 8.924600000000000311e-01 2.370099999999999874e+00 4.187680000000000291e+00 9.421199999999999575e-01 7.121220000000000105e+00 2.858060000000000045e+00 3.488719999999999821e+00 2.367999999999999883e+00 2.734469999999999956e+00 3.553399999999999892e+00 7.122700000000000031e+00 -1.145400000000000029e-01 1.785349999999999993e+00 4.745110000000000383e+00 -2.333399999999999919e-01 1.836470000000000047e+00 9.489800000000000679e+00 -1.568000000000000060e+00 4.390270000000000117e+00 4.742770000000000152e+00 -1.681810000000000027e+00 4.437549999999999883e+00 9.491540000000000532e+00 2.799539999999999917e+00 1.790960000000000107e+00 4.746069999999999567e+00 2.680699999999999861e+00 1.839450000000000029e+00 9.488379999999999370e+00 1.338160000000000016e+00 4.386720000000000397e+00 4.742950000000000443e+00 1.217950000000000088e+00 4.437669999999999781e+00 9.493349999999999511e+00
1.351040000000000019e+00 9.120500000000000274e-01 4.183340000000000281e+00 1.235030000000000072e+00 9.626400000000000512e-01 8.931530000000000413e+00 -9.858999999999999708e-02 3.512880000000000003e+00 4.185850000000000293e+00 -2.088500000000000079e-01 3.566209999999999880e+00 8.931889999999999219e+00 4.264090000000000380e+00 9.133200000000000207e-01 4.183939999999999770e+00 4.140629999999999811e+00 9.661300000000000443e-01 8.931950000000000500e+00 2.803869999999999862e+00 3.511130000000000084e+00 4.181090000000000195e+00 2.691710000000000047e+00 3.571079999999999810e+00 8.933930000000000149e+00 -3.618999999999999995e-02 1.756240000000000023e+00 1.810189999999999966e+00 -1.621299999999999963e-01 1.802910000000000013e+00 6.556530000000000413e+00 -1.499039999999999928e+00 4.353329999999999700e+00 1.806619999999999893e+00 -1.611469999999999958e+00 4.405429999999999957e+00 6.556029999999999802e+00 2.865829999999999878e+00 1.760420000000000096e+00 1.810550000000000104e+00 2.748400000000000176e+00 1.805379999999999985e+00 6.559829999999999828e+00 1.410840000000000094e+00 4.351600000000000357e+00 1.812200000000000033e+00 1.295660000000000034e+00 4.406060000000000088e+00 6.557719999999999771e+00 1.406420000000000003e+00 8.870000000000000107e-01 2.366150000000000198e+00 1.279519999999999991e+00 9.484399999999999498e-01 7.122359999999999580e+00 -5.498999999999999722e-02 3.496290000000000120e+00 2.373650000000000038e+00 -1.808800000000000130e-01 3.549869999999999859e+00 7.118009999999999948e+00 4.309379999999999988e+00 8.930500000000000105e-01 2.372009999999999952e+00 4.188880000000000159e+00 9.420300000000000340e-01 7.122029999999999639e+00 2.856289999999999996e+00 3.488469999999999960e+00 2.367519999999999847e+00 2.734640000000000182e+00 3.551019999999999843e+00 7.124710000000000321e+00 -1.150100000000000011e-01 1.784920000000000062e+00 4.745589999999999975e+00 -2.304400000000000059e-01 1.835900000000000087e+00 9.489470000000000738e+00 -1.566319999999999935e+00 4.389820000000000277e+00 4.743759999999999977e+00 -1.682290000000000063e+00 4.436890000000000001e+00 9.493080000000000851e+00 2.797839999999999883e+00 1.792100000000000026e+00 4.750079999999999636e+00 2.681760000000000144e+00 1.841930000000000067e+00 9.485279999999999490e+00 1.337900000000000089e+00 4.388189999999999813e+00 4.741179999999999950e+00 1.213240000000000096e+00 4.439049999999999940e+00 9.493619999999999948e+00
1.345250000000000057e+00 7.215399999999999592e-01 4.223130000000000273e+00 1.227319999999999967e+00 5.807999999999999829e-01 9.025740000000000762e+00 -2.040299999999999891e-01 3.242399999999999949e+00 4.226399999999999935e+00 -3.233900000000000108e-01 3.106770000000000032e+00 9.021649999999999281e+00 4.297220000000000262e+00 7.228599999999999470e-01 4.228959999999999830e+00 4.179149999999999920e+00 5.811800000000000299e-01 9.024399999999999977e+00 2.748559999999999892e+00 3.243780000000000108e+00 4.229739999999999611e+00 2.626189999999999802e+00 3.106790000000000163e+00 9.020810000000000883e+00 -9.471000000000000252e-02 1.629129999999999967e+00 1.826920000000000099e+00 -2.167199999999999960e-01 1.487789999999999946e+00 6.620079999999999742e+00 -1.645510000000000028e+00 4.148249999999999993e+00 1.832570000000000032e+00 -1.766629999999999923e+00 4.014420000000000321e+00 6.625009999999999621e+00 2.859700000000000131e+00 1.631839999999999957e+00 1.823369999999999935e+00 2.734030000000000182e+00 1.495130000000000070e+00 6.630510000000000126e+00 1.312780000000000058e+00 4.149140000000000050e+00 1.827290000000000081e+00 1.185759999999999925e+00 4.011709999999999887e+00 6.630399999999999849e+00 1.388859999999999983e+00 7.698500000000000343e-01 2.389380000000000059e+00 1.268019999999999925e+00 6.253499999999999615e-01 7.193190000000000417e+00 -1.656400000000000095e-01 3.294639999999999791e+00 2.397920000000000051e+00 -2.785500000000000198e-01 3.161230000000000206e+00 7.187140000000000306e+00 4.353830000000000311e+00 7.695699999999999763e-01 2.387610000000000010e+00 4.225649999999999906e+00 6.346899999999999764e-01 7.191309999999999647e+00 2.796959999999999891e+00 3.290500000000000203e+00 2.391599999999999948e+00 2.683129999999999793e+00 3.161249999999999893e+00 7.189000000000000057e+00 -1.695800000000000085e-01 1.544259999999999966e+00 4.793459999999999610e+00 -2.991400000000000170e-01 1.408190000000000053e+00 9.594540000000000290e+00 -1.720720000000000027e+00 4.068019999999999747e+00 4.794859999999999900e+00 -1.845420000000000060e+00 3.926680000000000170e+00 9.588969999999999771e+00 2.784699999999999953e+00 1.546850000000000058e+00 4.792449999999999655e+00 2.665420000000000122e+00 1.405990000000000073e+00 9.590180000000000149e+00 1.230620000000000047e+00 4.068889999999999674e+00 4.788249999999999673e+00 1.107169999999999987e+00 3.923529999999999962e+00 9.587669999999999249e+00
1.345390000000000086e+00 7.275899999999999590e-01 4.224789999999999601e+00 1.226790000000000047e+00 5.806999999999999940e-01 9.025520000000000209e+00 -2.033399999999999930e-01 3.239339999999999886e+00 4.227109999999999701e+00 -3.264400000000000079e-01 3.104000000000000092e+00 9.019869999999999166e+00 4.294609999999999594e+00 7.233000000000000540e-01 4.227899999999999991e+00 4.177870000000000417e+00 5.803500000000000325e-01 9.023600000000000065e+00 2.752339999999999787e+00 3.242999999999999883e+00 4.228900000000000325e+00 2.624280000000000168e+00 3.106840000000000046e+00 9.021549999999999514e+00 -9.640999999999999570e-02 1.626949999999999896e+00 1.829120000000000079e+00 -2.140400000000000080e-01 1.488869999999999916e+00 6.617910000000000181e+00 -1.643429999999999946e+00 4.146539999999999893e+00 1.832929999999999948e+00 -1.765519999999999978e+00 4.018559999999999910e+00 6.623470000000000191e+00 2.861180000000000057e+00 1.630090000000000039e+00 1.825870000000000104e+00 2.737639999999999851e+00 1.496080000000000076e+00 6.629870000000000374e+00 1.311520000000000019e+00 4.147079999999999878e+00 1.827609999999999957e+00 1.183910000000000018e+00 4.013720000000000176e+00 6.630469999999999864e+00 1.388710000000000111e+00 7.707899999999999752e-01 2.389170000000000016e+00 1.268170000000000019e+00 6.236399999999999721e-01 7.193800000000000416e+00 -1.675699999999999967e-01 3.296079999999999899e+00 2.399239999999999817e+00 -2.799099999999999921e-01 3.161480000000000068e+00 7.187509999999999621e+00 4.354930000000000412e+00 7.704100000000000392e-01 2.390890000000000182e+00 4.226219999999999644e+00 6.351799999999999669e-01 7.189589999999999925e+00 2.793940000000000090e+00 3.290430000000000188e+00 2.391539999999999999e+00 2.685340000000000060e+00 3.159209999999999852e+00 7.188609999999999722e+00 -1.694799999999999918e-01 1.543809999999999905e+00 4.792880000000000251e+00 -2.974800000000000222e-01 1.407049999999999912e+00 9.591979999999999507e+00 -1.718779999999999974e+00 4.069700000000000095e+00 4.795670000000000321e+00 -1.844300000000000050e+00 3.927589999999999915e+00 9.584740000000000038e+00 2.784100000000000019e+00 1.547719999999999985e+00 4.793120000000000047e+00 2.664779999999999927e+00 1.407839999999999980e+00 9.591630000000000322e+00 1.228699999999999903e+00 4.069079999999999586e+00 4.789959999999999773e+00 1.107199999999999962e+00 3.919729999999999936e+00 9.587460000000000093e+00