-2.571031576500000142e+02
-2.570988759200000118e+02
-2.568588024499999847e+02
-2.568536245600000143e+02
-2.576234458199999722e+02
-2.576144861099999730e+02
-2.510241121900000110e+02
-2.510245561399999872e+02
-2.584375590600000123e+02
-2.584396409799999788e+02
-2.576875613099999782e+02
-2.576920735499999751e+02
-2.567241003299999988e+02
-2.567316295100000048e+02
-2.547577123799999868e+02
-2.547589438500000085e+02
-2.536856306100000040e+02
-2.536841323099999954e+02
-2.569944455099999914e+02
-2.569906655199999932e+02
-2.570552707100000021e+02
-2.570542176999999811e+02
-2.546884954600000128e+02
-2.546791172499999902e+02
-2.547381882200000121e+02
-2.547236271099999954e+02
-2.564060066399999869e+02
-2.564039382600000181e+02
-2.562589823700000125e+02
-2.562802473099999929e+02
-2.570189283199999863e+02
-2.570017359099999794e+02
-2.532909096999999861e+02
-2.533020560500000045e+02
-2.548519380399999932e+02
-2.548436188000000016e+02
-2.536526198399999998e+02
-2.536498357300000066e+02
-2.589066462999999771e+02
-2.589020484100000203e+02
-2.564440114000000221e+02
-2.564366608600000177e+02
-2.566664649599999848e+02
-2.566707091999999761e+02
-2.569229819000000248e+02
-2.569188612500000204e+02
-2.521358890200000076e+02
-2.521471482000000037e+02
-2.588983348099999944e+02
-2.588844207299999880e+02
-2.545900042600000006e+02
-2.545919113399999958e+02
-2.598687880400000267e+02
-2.598673765199999934e+02
-2.510226204600000131e+02
-2.510129734100000007e+02
-2.608714112499999942e+02
-2.608647717100000136e+02
-2.579574685499999873e+02
-2.579778767000000244e+02
-2.619652601299999901e+02
-2.619611217199999942e+02
-2.608373790499999814e+02
-2.608352986599999781e+02
-2.610623177800000008e+02
-2.610515449000000103e+02
-2.615977706200000057e+02
-2.616023170400000026e+02
-2.612369936299999722e+02
-2.612332799000000136e+02
-2.615945348199999785e+02
-2.615990768300000013e+02
-2.607339265699999942e+02
-2.607246957500000235e+02
-2.619071674499999745e+02
-2.619070063400000095e+02
-2.609780694199999971e+02
-2.609764083900000173e+02
-2.615169266799999832e+02
-2.615086713100000111e+02
-2.609592627600000014e+02
-2.609571757599999842e+02
-2.613418934100000115e+02
-2.613437121399999796e+02
-2.622096743500000002e+02
-2.622007981400000176e+02
-2.613314378599999941e+02
-2.613296156100000189e+02
-2.608505596499999797e+02
-2.608546503100000109e+02
-2.618755911299999752e+02
-2.618835633200000075e+02
-2.617215095399999996e+02
-2.617126681600000211e+02
-2.607137232300000278e+02
-2.607142888199999788e+02
-2.624188279800000032e+02
-2.624152425099999846e+02
-2.618443340599999942e+02
-2.618425908400000139e+02
-2.576248127599999975e+02
-2.576197674000000006e+02
-2.603905921900000067e+02
-2.603850162800000021e+02
-2.625464931099999717e+02
-2.625434459900000093e+02
-2.617734782399999744e+02
-2.617652030300000092e+02
-2.621683885499999747e+02
-2.621607210799999734e+02
-2.606258909599999924e+02
-2.606289891800000191e+02
-2.614281223799999907e+02
-2.614407449799999767e+02
-2.610536121200000252e+02
-2.610443902700000081e+02
-2.620656112799999846e+02
-2.620645000000000095e+02
-2.609764921600000207e+02
-2.609704489999999737e+02
-2.628094375599999921e+02
-2.628056601499999942e+02
-2.620059974499999953e+02
-2.620053632300000004e+02
-2.621596525900000074e+02
-2.621527988400000027e+02
-2.625299604499999759e+02
-2.625265027899999950e+02
-2.623607840199999828e+02
-2.623623498499999869e+02
-2.626376409100000160e+02
-2.626267176800000129e+02
-2.620237348200000156e+02
-2.620212933099999759e+02
-2.623495227000000227e+02
-2.623477078700000220e+02
-2.624325781000000006e+02
-2.624373728400000232e+02
-2.625346339100000250e+02
-2.625365335100000266e+02
-2.620511212000000114e+02
-2.620334706099999948e+02
-2.619467678500000147e+02
-2.619521057200000200e+02
-2.621285989400000176e+02
-2.621213671099999942e+02
-2.616997505699999920e+02
-2.616941098199999942e+02
-2.624267227600000183e+02
-2.624210407900000064e+02
-2.619500658599999952e+02
-2.619546523199999797e+02
-2.623337207000000149e+02
-2.623433902099999955e+02
-2.623232982800000173e+02
-2.623239990899999725e+02
-2.620528931299999726e+02
-2.620579382099999748e+02
-2.621911804599999982e+02
-2.621921667799999796e+02
-2.624751434099999869e+02
-2.624694746999999779e+02
-2.622950922699999978e+02
-2.623014258599999948e+02
-2.623960476600000220e+02
-2.623979502600000160e+02
-2.621482366299999853e+02
-2.621492995799999903e+02
-2.623522376000000236e+02
-2.623496296999999799e+02
-2.617211257000000160e+02
-2.617185407900000200e+02
-2.626261644499999761e+02
-2.626233217299999865e+02
-2.620435537000000181e+02
-2.620332269699999870e+02
-2.625145136300000104e+02
-2.625059568500000182e+02
-2.622607609699999784e+02
-2.622571164299999964e+02
-2.620862099299999954e+02
-2.620833595999999943e+02
-2.605680173999999738e+02
-2.605679838699999777e+02
-2.613538502999999764e+02
-2.613537365199999840e+02
-2.601824636200000214e+02
-2.601773757799999771e+02
-2.618604163300000209e+02
-2.618607029099999863e+02
-2.620160833599999819e+02
-2.620072435000000155e+02
-2.610803601900000217e+02
-2.610807496900000046e+02
-2.620577538399999753e+02
-2.620542508999999995e+02
-2.619384595199999808e+02
-2.619331060200000252e+02
-2.616643904300000258e+02
-2.616697763299999906e+02
-2.620509876899999995e+02
-2.620501795900000275e+02
-2.622336099199999921e+02
-2.622302465299999881e+02
-2.623322442799999976e+02
-2.623335279199999945e+02
-2.617249395399999798e+02
-2.617206928200000107e+02
-2.606011233099999913e+02
-2.605988323099999775e+02
-2.615673884000000271e+02
-2.615726686799999925e+02
-2.626382461599999942e+02
-2.626361998500000254e+02
-2.591680974199999810e+02
-2.591673288599999978e+02
-2.601167167099999915e+02
-2.601149579300000028e+02
-2.614027945000000273e+02
-2.613991052299999751e+02
-2.612640426799999886e+02
-2.612682459100000187e+02
-2.616595278899999926e+02
-2.616609223799999882e+02
-2.618261520699999778e+02
-2.618161737099999868e+02
-2.624073782300000062e+02
-2.624063110199999755e+02
-2.620177801799999884e+02
-2.620157737800000177e+02
-2.623036157700000217e+02
-2.622977452299999754e+02
-2.606007539700000279e+02
-2.605935300500000267e+02
-2.617562593600000014e+02
-2.617524233600000230e+02
-2.618857978199999934e+02
-2.618832735400000047e+02
-2.619145654100000229e+02
-2.619065554300000258e+02
-2.586113565200000153e+02
-2.586085931800000139e+02
-2.563010585299999775e+02
-2.562959639499999867e+02
-2.581088390099999970e+02
-2.581079605699999888e+02
-2.592387742299999900e+02
-2.592380255799999986e+02
-2.552189028100000030e+02
-2.552173270300000070e+02
-2.585241980700000113e+02
-2.585216147400000182e+02
-2.579959420299999806e+02
-2.579923962600000209e+02
-2.590150326799999903e+02
-2.590148398300000281e+02
-2.600215184799999975e+02
-2.600217710399999760e+02
-2.610706517899999994e+02
-2.610715284600000246e+02
-2.574858612900000026e+02
-2.574836701300000072e+02
-2.579940550300000268e+02
-2.579924788700000136e+02
-2.566416230799999880e+02
-2.566388402300000280e+02
-2.555391999800000065e+02
-2.555375372400000060e+02
-2.580122522500000173e+02
-2.580120190299999763e+02
-2.561879018800000267e+02
-2.561885760800000185e+02
-2.578113034599999764e+02
-2.578094807699999933e+02
-2.577890192300000081e+02
-2.577878648299999895e+02
-2.585214808800000128e+02
-2.585191054300000246e+02
-2.554225167099999965e+02
-2.554217277099999990e+02
-2.555569568100000026e+02
-2.555548679100000129e+02
-2.610702681299999881e+02
-2.610675910100000010e+02
-2.600498335500000167e+02
-2.600493801299999745e+02
-2.578115245399999935e+02
-2.578115558200000237e+02
-2.577604042599999730e+02
-2.577591227799999842e+02
-2.592254530199999749e+02
-2.592179875599999832e+02
-2.557536140599999896e+02
-2.557496245799999883e+02
-2.594038036200000192e+02
-2.594040433800000187e+02
