1.420000000000000092e-04 -8.399999999999999535e-05 8.085499999999999632e-02 1.430000000000000064e-04 -8.299999999999999815e-05 8.085399999999999532e-02 1.430000000000000064e-04 -8.200000000000000095e-05 8.085499999999999632e-02 1.420000000000000092e-04 -8.299999999999999815e-05 8.085499999999999632e-02 1.430000000000000064e-04 -8.399999999999999535e-05 8.085299999999999432e-02 1.420000000000000092e-04 -8.200000000000000095e-05 8.085599999999999732e-02 1.420000000000000092e-04 -8.200000000000000095e-05 8.085499999999999632e-02 1.430000000000000064e-04 -8.299999999999999815e-05 8.085499999999999632e-02 -1.420000000000000092e-04 8.200000000000000095e-05 8.085599999999999732e-02 -1.430000000000000064e-04 8.299999999999999815e-05 8.085399999999999532e-02 -1.430000000000000064e-04 8.399999999999999535e-05 8.085499999999999632e-02 -1.420000000000000092e-04 8.299999999999999815e-05 8.085399999999999532e-02 -1.430000000000000064e-04 8.299999999999999815e-05 8.085599999999999732e-02 -1.420000000000000092e-04 8.200000000000000095e-05 8.085399999999999532e-02 -1.420000000000000092e-04 8.299999999999999815e-05 8.085399999999999532e-02 -1.430000000000000064e-04 8.399999999999999535e-05 8.085599999999999732e-02 1.420000000000000092e-04 -8.200000000000000095e-05 -8.066399999999999959e-02 1.410000000000000120e-04 -8.200000000000000095e-05 -8.066399999999999959e-02 1.410000000000000120e-04 -8.200000000000000095e-05 -8.066399999999999959e-02 1.420000000000000092e-04 -8.100000000000000375e-05 -8.066500000000000059e-02 1.410000000000000120e-04 -8.200000000000000095e-05 -8.066399999999999959e-02 1.420000000000000092e-04 -8.299999999999999815e-05 -8.066299999999999859e-02 1.420000000000000092e-04 -8.200000000000000095e-05 -8.066399999999999959e-02 1.410000000000000120e-04 -8.100000000000000375e-05 -8.066500000000000059e-02 -1.410000000000000120e-04 8.200000000000000095e-05 -8.066399999999999959e-02 -1.420000000000000092e-04 8.200000000000000095e-05 -8.066299999999999859e-02 -1.420000000000000092e-04 8.200000000000000095e-05 -8.066399999999999959e-02 -1.410000000000000120e-04 8.200000000000000095e-05 -8.066199999999999759e-02 -1.410000000000000120e-04 8.200000000000000095e-05 -8.066500000000000059e-02 -1.410000000000000120e-04 8.200000000000000095e-05 -8.066299999999999859e-02 -1.410000000000000120e-04 8.200000000000000095e-05 -8.066299999999999859e-02 -1.410000000000000120e-04 8.299999999999999815e-05 -8.066399999999999959e-02
1.264689999999999981e-01 -2.639999999999999986e-02 4.722699999999999815e-02 -4.368600000000000261e-02 -6.374599999999999711e-02 9.292400000000000659e-02 3.857700000000000018e-02 -5.777899999999999703e-02 1.491399999999999948e-01 4.223400000000000071e-02 -8.909400000000000652e-02 5.049800000000000122e-02 -2.076100000000000168e-02 -1.672359999999999958e-01 1.714029999999999998e-01 -2.752999999999999805e-03 -1.335199999999999929e-02 7.675800000000000678e-02 -2.874900000000000025e-02 8.461899999999999977e-02 9.993699999999999806e-02 2.376899999999999846e-02 8.591000000000000025e-02 1.142370000000000052e-01 5.128800000000000026e-02 -7.160299999999999998e-02 1.001480000000000009e-01 -1.251160000000000050e-01 -1.989499999999999949e-02 -9.906999999999999140e-03 -5.943799999999999778e-02 4.345500000000000057e-02 2.491300000000000112e-02 -1.611499999999999877e-01 -1.371000000000000040e-03 5.410199999999999732e-02 5.290399999999999964e-02 4.444000000000000034e-03 3.982600000000000029e-02 1.881009999999999904e-01 3.390699999999999964e-02 1.547989999999999922e-01 4.947700000000000015e-02 -6.344800000000000439e-02 -2.402699999999999975e-02 5.951700000000000046e-02 3.607400000000000190e-02 8.429200000000000581e-02 -2.942099999999999924e-02 3.583100000000000174e-02 -1.149649999999999977e-01 1.509399999999999978e-02 -5.971999999999999878e-03 -3.592900000000000260e-02 -2.490000000000000026e-03 -2.733999999999999885e-03 -7.269000000000000461e-02 1.060839999999999977e-01 -4.356700000000000156e-02 -1.094599999999999913e-02 -4.623499999999999832e-02 1.275799999999999990e-01 -1.366630000000000067e-01 -4.991899999999999810e-02 3.729699999999999682e-02 -1.226160000000000028e-01 1.116200000000000005e-02 -5.038200000000000317e-02 -4.658000000000000335e-02 -3.506200000000000289e-02 -3.326599999999999696e-02 -9.460200000000000553e-02 -7.435999999999999555e-02 1.645590000000000108e-01 2.734599999999999878e-02 3.940500000000000252e-02 5.001499999999999696e-02 -9.826999999999999624e-02 -2.061899999999999844e-02 -4.910699999999999787e-02 -1.155370000000000008e-01 -3.946700000000000208e-02 5.698799999999999699e-02 -6.237499999999999989e-02 -3.177399999999999669e-02 -1.959100000000000077e-02 -1.361630000000000063e-01 -1.529800000000000083e-02 -4.654200000000000004e-02 2.040700000000000153e-02 -4.527999999999999907e-03 6.089100000000000068e-02 -1.612020000000000119e-01 -1.314000000000000064e-02 3.324999999999999831e-03 -6.244799999999999657e-02
7.518099999999999783e-02 2.275900000000000145e-02 -4.742169999999999996e-01 9.626700000000000534e-02 -2.014099999999999918e-02 -7.031509999999999705e-01 6.350000000000000089e-02 -4.599199999999999816e-02 -5.843890000000000473e-01 5.312399999999999761e-02 -7.141300000000000425e-02 -6.385809999999999542e-01 4.935200000000000004e-02 1.389660000000000062e-01 -5.638769999999999616e-01 -1.639300000000000132e-02 2.101000000000000003e-03 -5.906709999999999461e-01 -8.781000000000000610e-03 -1.245840000000000003e-01 -5.779379999999999518e-01 4.831599999999999784e-02 9.732000000000000373e-02 -6.694759999999999600e-01 -2.498519999999999908e-01 -2.020879999999999899e-01 -4.407220000000000026e-01 -7.345990000000000020e-01 1.461560000000000081e-01 -3.914170000000000149e-01 -4.907909999999999773e-01 -3.181970000000000076e-01 -5.463400000000000478e-01 -4.031150000000000011e-01 -2.133950000000000014e-01 -6.592390000000000194e-01 -2.732620000000000049e-01 -2.820360000000000089e-01 -5.409169999999999812e-01 -5.005589999999999762e-01 -7.985499999999999543e-02 -3.817550000000000110e-01 -4.639710000000000223e-01 -5.976000000000000409e-03 -5.784799999999999942e-01 -3.533810000000000007e-01 -2.394439999999999902e-01 -6.363860000000000072e-01 3.279059999999999753e-01 3.462060000000000137e-01 4.699380000000000224e-01 5.751720000000000166e-01 -1.654299999999999868e-02 8.125200000000000200e-01 3.624359999999999804e-01 1.382289999999999908e-01 6.326159999999999561e-01 3.108170000000000099e-01 -4.143000000000000155e-02 4.398420000000000107e-01 1.690010000000000123e-01 1.014209999999999973e-01 5.675179999999999669e-01 6.437300000000000244e-01 2.023679999999999923e-01 5.285389999999999810e-01 5.624500000000000055e-01 2.251080000000000025e-01 6.766199999999999992e-01 4.020179999999999865e-01 1.928640000000000077e-01 5.986609999999999987e-01 -5.953499999999999764e-02 1.311289999999999956e-01 3.857079999999999953e-01 1.043749999999999956e-01 1.332700000000000030e-02 4.993569999999999953e-01 1.035950000000000065e-01 1.828600000000000017e-02 6.325030000000000374e-01 -6.603699999999999848e-02 1.822340000000000071e-01 5.614339999999999886e-01 -9.216000000000000233e-03 2.981299999999999922e-02 2.374110000000000109e-01 -1.449960000000000138e-01 -2.116429999999999978e-01 6.260430000000000161e-01 -1.579699999999999993e-01 -1.412190000000000112e-01 6.950499999999999456e-01 -1.293399999999999932e-02 2.517099999999999893e-02 6.122800000000000464e-01
1.718099999999999836e-02 -1.996360000000000079e-01 -5.644059999999999633e-01 7.953499999999999459e-02 2.099000000000000171e-02 -6.477039999999999464e-01 1.024990000000000068e-01 -5.350900000000000101e-02 -6.347509999999999541e-01 2.306000000000000064e-02 -3.837600000000000039e-02 -6.702709999999999502e-01 1.020680000000000059e-01 1.899150000000000005e-01 -6.156589999999999563e-01 2.170700000000000060e-02 -5.365600000000000230e-02 -6.692360000000000531e-01 -1.051099999999999951e-01 -8.444699999999999429e-02 -5.117920000000000247e-01 1.956589999999999996e-01 2.860809999999999742e-01 -7.502760000000000540e-01 -2.636800000000000255e-01 -1.242329999999999962e-01 -4.233399999999999941e-01 -6.477709999999999857e-01 1.925520000000000009e-01 -3.643799999999999817e-01 -5.125359999999999916e-01 -2.373979999999999979e-01 -5.585109999999999797e-01 -4.093470000000000164e-01 -1.771159999999999957e-01 -5.295410000000000394e-01 -2.659909999999999775e-01 -2.307909999999999962e-01 -5.671049999999999702e-01 -4.151929999999999787e-01 -1.479500000000000086e-02 -3.666050000000000142e-01 -4.500069999999999903e-01 -2.475899999999999976e-02 -5.214360000000000106e-01 -4.609429999999999916e-01 -9.146799999999999375e-02 -6.871770000000000378e-01 3.886569999999999747e-01 2.542150000000000243e-01 4.846980000000000177e-01 4.751279999999999948e-01 -8.925199999999999800e-02 7.661529999999999729e-01 3.063549999999999884e-01 1.013330000000000064e-01 6.319430000000000325e-01 2.817350000000000132e-01 -8.012600000000000278e-02 4.032370000000000121e-01 1.034220000000000000e-01 1.263970000000000093e-01 5.806869999999999532e-01 5.990060000000000384e-01 1.100249999999999978e-01 5.754639999999999755e-01 6.229090000000000460e-01 1.523670000000000024e-01 6.580669999999999575e-01 5.083999999999999631e-01 9.025700000000000389e-02 6.834999999999999964e-01 -1.311700000000000088e-01 1.968199999999999950e-01 4.421410000000000062e-01 1.977250000000000119e-01 -5.851200000000000151e-02 5.091069999999999762e-01 1.059200000000000003e-01 1.000189999999999968e-01 5.590530000000000221e-01 -1.679529999999999912e-01 1.561720000000000053e-01 5.939699999999999980e-01 5.107799999999999840e-02 1.510289999999999966e-01 2.255209999999999992e-01 -2.473490000000000133e-01 -3.502319999999999878e-01 7.052100000000000035e-01 -8.290899999999999659e-02 -2.784639999999999893e-01 7.209820000000000118e-01 -1.978600000000000150e-02 5.867499999999999799e-02 5.420199999999999463e-01
4.284899999999999820e-02 -1.151575999999999933e+00 -2.760969999999999813e-01 1.260489999999999944e-01 -1.031252000000000058e+00 -1.639380000000000004e-01 9.631199999999999484e-02 -9.638170000000000348e-01 -1.643360000000000098e-01 -6.959799999999999320e-02 -9.887139999999999818e-01 -1.588080000000000047e-01 1.423580000000000123e-01 -9.628729999999999789e-01 -2.308679999999999899e-01 -1.644990000000000063e-01 -1.144214000000000064e+00 -1.780400000000000038e-01 1.855350000000000055e-01 -9.808090000000000419e-01 -2.329110000000000069e-01 -8.125699999999999590e-02 -1.041401999999999939e+00 -1.700959999999999972e-01 6.119869999999999477e-01 4.637640000000000096e-01 -1.492600000000000038e-01 5.587619999999999809e-01 3.339550000000000018e-01 1.869300000000000128e-02 4.960999999999999854e-01 2.684039999999999759e-01 1.199100000000000027e-01 6.367709999999999759e-01 4.826099999999999834e-01 -6.790599999999999414e-02 6.896520000000000428e-01 6.736050000000000093e-01 -3.596980000000000177e-01 7.844229999999999814e-01 4.217339999999999978e-01 -3.385520000000000196e-01 6.244199999999999751e-01 4.349810000000000065e-01 1.423000000000000003e-03 6.804350000000000120e-01 3.242269999999999874e-01 7.964999999999999858e-03 -7.849500000000000366e-01 -6.164650000000000407e-01 2.591399999999999815e-01 -7.440350000000000019e-01 -4.114880000000000204e-01 1.428399999999999948e-01 -6.958309999999999773e-01 -2.885369999999999879e-01 1.712980000000000058e-01 -6.612160000000000259e-01 -4.513320000000000110e-01 6.022600000000000176e-02 -4.851230000000000264e-01 -5.031520000000000437e-01 2.027059999999999973e-01 -5.060759999999999703e-01 -1.288970000000000116e-01 1.516039999999999888e-01 -3.553580000000000072e-01 -1.860819999999999974e-01 1.298940000000000095e-01 -6.345210000000000017e-01 -3.349079999999999835e-01 1.617270000000000096e-01 -3.787499999999999895e-02 1.064862999999999893e+00 1.172030000000000016e-01 1.112599999999999978e-01 1.042713000000000001e+00 1.837570000000000037e-01 -2.929299999999999959e-02 1.015768000000000004e+00 6.505199999999999871e-02 4.175299999999999845e-02 1.058799999999999963e+00 4.473599999999999799e-02 -2.238130000000000119e-01 9.574669999999999570e-01 4.136580000000000257e-01 -1.148480000000000056e-01 8.514359999999999706e-01 1.794939999999999869e-01 -3.066260000000000097e-01 7.736600000000000144e-01 7.496300000000000185e-02 6.144600000000000062e-02 1.017508000000000079e+00 -1.913899999999999976e-02
-4.030099999999999655e-02 -1.156085000000000029e+00 -3.144350000000000200e-01 1.750490000000000101e-01 -9.562359999999999749e-01 -9.990799999999999681e-02 1.761689999999999923e-01 -9.836369999999999836e-01 -2.165719999999999867e-01 5.317999999999999811e-03 -9.120200000000000529e-01 -6.582000000000000350e-02 9.606599999999999862e-02 -8.908160000000000522e-01 -1.680159999999999987e-01 -6.224099999999999772e-02 -1.201103999999999949e+00 -1.951559999999999961e-01 2.418079999999999952e-01 -1.068449999999999900e+00 -3.634189999999999920e-01 -1.014130000000000031e-01 -1.067901999999999907e+00 -9.889799999999999980e-02 6.152069999999999483e-01 4.884180000000000188e-01 -1.631549999999999945e-01 6.527129999999999876e-01 3.043080000000000229e-01 -7.881900000000000017e-02 4.136540000000000217e-01 2.750449999999999839e-01 1.774650000000000116e-01 6.984890000000000265e-01 5.915319999999999467e-01 -1.324000000000000003e-02 6.190409999999999524e-01 7.108119999999999994e-01 -2.349779999999999924e-01 8.109979999999999967e-01 3.370859999999999967e-01 -3.253650000000000153e-01 6.891220000000000123e-01 3.965270000000000183e-01 -1.917699999999999960e-02 7.788749999999999840e-01 4.461109999999999798e-01 1.546939999999999982e-01 -7.477589999999999515e-01 -6.097890000000000255e-01 2.251890000000000003e-01 -8.051310000000000411e-01 -5.049719999999999764e-01 5.528799999999999687e-02 -6.518009999999999637e-01 -3.166539999999999910e-01 1.981259999999999966e-01 -7.296610000000000040e-01 -4.486899999999999777e-01 8.555000000000000104e-03 -4.857989999999999808e-01 -5.198450000000000015e-01 1.599059999999999926e-01 -5.717010000000000147e-01 -2.254720000000000057e-01 1.463270000000000126e-01 -3.577529999999999877e-01 -2.005180000000000018e-01 9.056200000000000361e-02 -7.195179999999999909e-01 -2.649039999999999728e-01 1.288189999999999891e-01 -2.315700000000000050e-02 1.022513000000000005e+00 1.880910000000000082e-01 2.388099999999999945e-02 9.671720000000000317e-01 1.640439999999999954e-01 -1.980099999999999916e-02 1.076443000000000039e+00 1.131220000000000003e-01 4.649999999999999967e-02 1.025779999999999914e+00 1.219600000000000024e-02 -9.423499999999999932e-02 9.372650000000000148e-01 4.330140000000000100e-01 -1.833440000000000070e-01 8.793269999999999698e-01 1.237000000000000044e-01 -4.691219999999999835e-01 8.394509999999999472e-01 3.095399999999999888e-02 1.561300000000000014e-02 1.028699000000000030e+00 -5.652100000000000180e-02
2.810639999999999805e-01 -2.125620000000000009e-01 6.012030000000000429e-01 4.070860000000000034e-01 -8.073999999999999580e-03 3.183039999999999758e-01 3.224670000000000036e-01 -2.559200000000000016e-02 6.762160000000000393e-01 3.497700000000000253e-01 -1.202710000000000029e-01 2.153940000000000021e-01 1.889579999999999871e-01 -4.691250000000000142e-01 6.959980000000000055e-01 6.188280000000000447e-01 -4.482459999999999778e-01 3.687389999999999834e-01 2.878769999999999940e-01 -5.223839999999999595e-01 6.293320000000000025e-01 3.863190000000000235e-01 -5.506640000000000423e-01 1.600380000000000136e-01 -7.719160000000000466e-01 4.820599999999999885e-02 4.959770000000000012e-01 -1.234321000000000002e+00 1.866699999999999957e-02 6.251860000000000195e-01 -7.616490000000000204e-01 -9.435499999999999443e-02 4.559880000000000044e-01 -1.102632000000000057e+00 1.001530000000000059e-01 3.225089999999999901e-01 -1.005417000000000005e+00 1.131199999999999914e-02 4.058849999999999958e-01 -8.682739999999999903e-01 -6.356199999999999350e-02 7.061349999999999572e-01 -1.035101999999999967e+00 -2.882799999999999946e-02 4.646779999999999800e-01 -1.097652000000000072e+00 -1.783220000000000083e-01 1.361070000000000058e-01 8.348609999999999642e-01 5.799699999999999994e-02 -5.921429999999999749e-01 9.542890000000000539e-01 4.213900000000000284e-02 -3.606079999999999841e-01 8.210389999999999633e-01 7.839000000000000135e-02 -6.848319999999999963e-01 1.221370000000000067e+00 -1.836560000000000137e-01 -1.278100000000000069e-01 8.494589999999999641e-01 -6.034000000000000301e-03 -5.758529999999999482e-01 1.018841000000000108e+00 3.278760000000000008e-01 -4.696529999999999871e-01 9.157849999999999602e-01 -2.308699999999999988e-02 -6.044349999999999445e-01 8.977359999999999784e-01 -5.908499999999999863e-02 -2.707499999999999907e-01 -1.395579999999999876e-01 1.588360000000000050e-01 -5.800779999999999825e-01 -3.860680000000000223e-01 1.693129999999999913e-01 -5.550000000000000488e-01 -1.541990000000000027e-01 2.383810000000000096e-01 -4.719240000000000101e-01 -1.460799999999999876e-01 3.140300000000000036e-02 -2.559009999999999896e-01 -2.162640000000000118e-01 4.483909999999999840e-01 -6.629829999999999890e-01 -5.479800000000000226e-01 5.226739999999999720e-01 -3.063339999999999952e-01 -4.139309999999999934e-01 3.745479999999999920e-01 -3.205930000000000168e-01 -4.738430000000000142e-01 3.618890000000000162e-01 -4.460540000000000060e-01
3.222780000000000089e-01 -8.945999999999999786e-02 7.653079999999999883e-01 4.711400000000000032e-01 -1.291859999999999953e-01 2.903600000000000070e-01 2.315389999999999948e-01 -6.111500000000000266e-02 6.476750000000000007e-01 4.059869999999999868e-01 -1.548140000000000072e-01 3.226580000000000004e-01 2.077529999999999932e-01 -5.648779999999999912e-01 5.935930000000000373e-01 6.350860000000000394e-01 -5.127559999999999896e-01 3.316589999999999816e-01 1.668379999999999863e-01 -4.030850000000000266e-01 6.372079999999999966e-01 4.582220000000000182e-01 -6.386579999999999480e-01 3.900900000000000201e-02 -7.676410000000000178e-01 3.346600000000000269e-02 4.875820000000000154e-01 -1.255748000000000086e+00 3.394400000000000195e-02 7.443520000000000136e-01 -6.882479999999999709e-01 -1.595320000000000071e-01 2.686740000000000239e-01 -1.044599999999999973e+00 9.941999999999999449e-02 3.270159999999999734e-01 -1.110483000000000109e+00 1.131110000000000032e-01 4.871400000000000174e-01 -8.004419999999999868e-01 -1.341799999999999937e-02 6.492259999999999698e-01 -1.070057000000000036e+00 -1.022490000000000065e-01 4.616310000000000136e-01 -9.572990000000000110e-01 -1.693939999999999890e-01 1.843019999999999936e-01 8.655119999999999481e-01 1.085210000000000063e-01 -6.864139999999999686e-01 9.598670000000000258e-01 5.459300000000000264e-02 -2.623019999999999796e-01 7.466749999999999776e-01 1.321430000000000105e-01 -5.965620000000000367e-01 1.115993999999999930e+00 -2.527320000000000122e-01 -1.946730000000000127e-01 9.085090000000000110e-01 1.890899999999999873e-02 -4.147509999999999808e-01 9.599560000000000315e-01 3.930560000000000165e-01 -4.290419999999999789e-01 9.585310000000000219e-01 -1.190559999999999952e-01 -5.850990000000000357e-01 8.105860000000000287e-01 -1.315679999999999905e-01 -2.119020000000000070e-01 -4.917500000000000343e-02 2.620970000000000244e-01 -7.245599999999999818e-01 -3.745740000000000181e-01 2.451049999999999895e-01 -5.688050000000000050e-01 -5.380999999999999672e-02 1.579389999999999961e-01 -5.259329999999999838e-01 -1.488990000000000036e-01 1.845249999999999946e-01 -1.242189999999999961e-01 -3.507970000000000255e-01 3.396989999999999732e-01 -6.127989999999999826e-01 -6.296429999999999527e-01 5.457760000000000389e-01 -3.968409999999999993e-01 -3.165850000000000053e-01 3.514660000000000006e-01 -4.411189999999999833e-01 -6.058729999999999949e-01 4.241480000000000250e-01 -4.689869999999999872e-01
-1.039709999999999940e-01 -3.941239999999999744e-01 -1.244000000000000097e-03 -1.747340000000000004e-01 -5.406579999999999719e-01 1.303400000000000045e-02 -3.649709999999999899e-01 -5.023490000000000455e-01 -1.328999999999999973e-02 -4.499619999999999731e-01 -5.326739999999999808e-01 -2.087279999999999969e-01 -2.167179999999999940e-01 -4.802980000000000027e-01 4.632999999999999965e-03 -8.374500000000000000e-02 -6.463179999999999481e-01 1.574000000000000052e-02 -6.837100000000000122e-02 -3.235120000000000218e-01 3.275800000000000239e-02 -2.665100000000000247e-01 -3.554120000000000057e-01 2.206199999999999828e-02 -3.837090000000000223e-01 5.952640000000000153e-01 -8.559400000000000341e-02 -4.249709999999999877e-01 7.665950000000000264e-01 1.237919999999999993e-01 -1.543309999999999960e-01 6.554309999999999858e-01 -1.484000000000000076e-03 -4.680549999999999988e-01 8.272119999999999473e-01 -7.585899999999999588e-02 -9.581399999999999639e-02 4.482880000000000198e-01 -9.648500000000000132e-02 -3.182820000000000094e-01 8.321730000000000516e-01 -7.446899999999999353e-02 -2.001090000000000091e-01 8.102420000000000178e-01 -1.452819999999999945e-01 -3.997240000000000237e-01 7.004709999999999548e-01 -8.247000000000000164e-02 1.017529999999999962e-01 -4.978779999999999872e-01 4.183300000000000213e-02 3.426469999999999794e-01 -7.566800000000000193e-01 -1.086430000000000035e-01 1.804510000000000003e-01 -7.644760000000000444e-01 -5.872999999999999748e-03 5.100329999999999586e-01 -7.839779999999999527e-01 9.576999999999999402e-02 3.328909999999999925e-01 -5.393470000000000208e-01 -3.314600000000000185e-02 3.929019999999999735e-01 -5.674090000000000522e-01 -5.824599999999999916e-02 1.781510000000000038e-01 -4.806840000000000002e-01 8.363500000000000101e-02 3.880199999999999760e-01 -8.043350000000000222e-01 -4.378599999999999853e-02 2.304569999999999952e-01 3.901589999999999780e-01 -8.040700000000000625e-02 2.216170000000000084e-01 4.264620000000000077e-01 2.134870000000000101e-01 1.084200000000000025e-01 3.167820000000000080e-01 4.976699999999999874e-02 1.395849999999999869e-01 4.434939999999999993e-01 2.528199999999999892e-02 8.162600000000000411e-02 2.636430000000000162e-01 4.637999999999999762e-02 7.767899999999999805e-02 4.649139999999999939e-01 1.450869999999999937e-01 3.588589999999999836e-01 4.915849999999999942e-01 7.701600000000000112e-02 5.325659999999999838e-01 5.395689999999999653e-01 1.205510000000000054e-01
-6.546499999999999542e-02 -4.245659999999999989e-01 -3.545600000000000140e-02 -1.393600000000000116e-01 -4.672040000000000082e-01 3.620899999999999813e-02 -3.862140000000000017e-01 -4.830789999999999806e-01 -4.749099999999999849e-02 -6.184629999999999850e-01 -6.156460000000000266e-01 -1.200490000000000029e-01 -2.956630000000000091e-01 -4.372619999999999840e-01 1.015000000000000060e-03 -4.000700000000000089e-02 -5.125110000000000499e-01 2.150099999999999928e-02 -1.024399999999999963e-02 -2.883620000000000072e-01 3.974400000000000155e-02 -2.545939999999999870e-01 -4.395609999999999795e-01 1.939300000000000052e-02 -4.202969999999999762e-01 5.706379999999999786e-01 -9.154700000000000337e-02 -3.590459999999999763e-01 7.597340000000000204e-01 7.056900000000000672e-02 -2.049640000000000073e-01 6.303699999999999859e-01 -5.799999999999999600e-03 -5.454529999999999657e-01 8.210359999999999880e-01 5.331999999999999934e-03 -1.075519999999999948e-01 4.281119999999999925e-01 -2.526610000000000245e-01 -2.494599999999999873e-01 7.758399999999999741e-01 4.532499999999999724e-02 -2.009610000000000007e-01 8.265519999999999534e-01 -1.124929999999999958e-01 -3.713520000000000154e-01 6.978060000000000374e-01 -6.268100000000000060e-02 9.588299999999999601e-02 -4.937599999999999767e-01 1.507789999999999964e-01 2.782749999999999946e-01 -7.387949999999999795e-01 -8.335900000000000254e-02 2.268449999999999911e-01 -7.436869999999999870e-01 2.934000000000000150e-02 5.603179999999999827e-01 -8.081139999999999990e-01 2.278900000000000023e-02 3.661320000000000130e-01 -5.605580000000000007e-01 -5.734399999999999914e-02 3.297539999999999916e-01 -5.887719999999999620e-01 -8.447499999999999454e-02 2.025480000000000058e-01 -4.307279999999999998e-01 1.107299999999999951e-01 3.758929999999999771e-01 -6.931739999999999569e-01 -1.088299999999999962e-01 2.474530000000000063e-01 4.024940000000000184e-01 -2.496100000000000055e-02 1.597359999999999891e-01 4.168319999999999803e-01 1.572369999999999879e-01 4.533800000000000330e-02 3.042389999999999817e-01 -4.050200000000000328e-02 2.014340000000000019e-01 4.288239999999999830e-01 -3.018999999999999982e-03 1.180199999999999999e-01 2.366199999999999970e-01 -9.900699999999999779e-02 4.464400000000000313e-02 4.327300000000000035e-01 2.393609999999999904e-01 3.757400000000000184e-01 4.475939999999999919e-01 1.184299999999999936e-01 6.442839999999999678e-01 5.487340000000000551e-01 1.577749999999999986e-01
-8.483070000000000332e-01 -1.394640000000000046e-01 -4.370160000000000156e-01 -1.060151000000000066e+00 -7.655599999999999905e-02 -4.102999999999999980e-01 -9.872940000000000049e-01 -1.146419999999999939e-01 -4.187600000000000211e-01 -1.157389000000000001e+00 -2.457550000000000012e-01 -4.938500000000000112e-01 -8.087239999999999984e-01 -1.218989999999999935e-01 -6.215950000000000086e-01 -9.118619999999999504e-01 -1.629279999999999895e-01 -4.580150000000000055e-01 -8.617420000000000080e-01 -5.746099999999999819e-02 -5.438039999999999541e-01 -8.477980000000000516e-01 -1.731600000000000084e-01 -4.155519999999999770e-01 3.213460000000000205e-01 -5.026180000000000092e-01 -3.996080000000000187e-01 3.158960000000000101e-01 -4.634759999999999991e-01 -2.734739999999999949e-01 2.610230000000000050e-01 -5.324290000000000411e-01 -5.901070000000000482e-01 4.146070000000000033e-01 -6.513360000000000261e-01 -5.204630000000000090e-01 3.412859999999999783e-01 -8.255630000000000468e-01 -3.314759999999999929e-01 3.461429999999999785e-01 -7.367040000000000255e-01 -5.257969999999999589e-01 1.214289999999999953e-01 -6.493499999999999828e-01 -4.082779999999999743e-01 4.391079999999999983e-01 -4.782319999999999904e-01 -6.202670000000000128e-01 -9.063400000000000623e-02 6.410540000000000127e-01 4.817699999999999760e-01 -1.969549999999999912e-01 9.351469999999999505e-01 4.764740000000000086e-01 1.968900000000000164e-02 5.833270000000000399e-01 3.652460000000000151e-01 -2.498209999999999875e-01 2.890499999999999736e-01 4.914180000000000215e-01 -5.055560000000000054e-01 5.902290000000000036e-01 5.865510000000000446e-01 -3.186390000000000056e-01 5.797170000000000378e-01 4.092120000000000202e-01 -2.983350000000000168e-01 6.447209999999999885e-01 5.784960000000000102e-01 -5.483580000000000121e-01 4.615650000000000031e-01 4.951329999999999898e-01 8.212500000000000355e-01 9.327599999999999780e-02 4.020420000000000105e-01 1.091617999999999977e+00 9.479899999999999438e-02 2.922739999999999783e-01 8.205689999999999928e-01 1.600600000000000078e-01 3.455860000000000043e-01 9.102390000000000203e-01 1.745909999999999962e-01 5.192569999999999686e-01 7.344239999999999657e-01 7.749499999999999444e-02 5.425560000000000382e-01 7.623910000000000409e-01 1.792700000000000127e-01 3.466659999999999742e-01 9.244790000000000507e-01 1.390210000000000057e-01 6.273980000000000112e-01 1.046295999999999893e+00 2.921159999999999868e-01 5.084880000000000511e-01
-8.603129999999999944e-01 -3.077739999999999920e-01 -4.798299999999999788e-01 -1.005708999999999964e+00 -4.847200000000000120e-02 -4.203890000000000127e-01 -1.010332999999999926e+00 -2.144300000000000025e-02 -4.188250000000000028e-01 -1.071009000000000100e+00 -1.952319999999999889e-01 -4.781489999999999907e-01 -7.437540000000000262e-01 -1.560050000000000048e-01 -5.432989999999999764e-01 -8.940280000000000449e-01 -1.825450000000000128e-01 -4.398489999999999900e-01 -9.491889999999999494e-01 3.484700000000000297e-02 -4.905789999999999873e-01 -7.784440000000000248e-01 -1.656509999999999927e-01 -4.575469999999999815e-01 3.829509999999999859e-01 -4.117049999999999876e-01 -4.848720000000000252e-01 2.700480000000000103e-01 -4.849140000000000117e-01 -2.165469999999999895e-01 1.454439999999999900e-01 -4.592339999999999756e-01 -6.376840000000000286e-01 3.795479999999999965e-01 -7.903360000000000385e-01 -4.759720000000000062e-01 3.061989999999999990e-01 -7.772390000000000132e-01 -3.875460000000000016e-01 2.496889999999999943e-01 -7.833980000000000388e-01 -5.004790000000000072e-01 1.109229999999999938e-01 -5.745630000000000459e-01 -4.182259999999999867e-01 5.143159999999999954e-01 -5.685489999999999711e-01 -5.947639999999999594e-01 -8.752200000000000257e-02 5.789659999999999807e-01 4.970019999999999993e-01 -1.463830000000000131e-01 1.091585000000000027e+00 4.535440000000000027e-01 6.355099999999999638e-02 4.775190000000000268e-01 3.522460000000000035e-01 -2.112999999999999878e-01 2.855380000000000140e-01 4.445620000000000127e-01 -5.470009999999999595e-01 4.925419999999999798e-01 5.109200000000000408e-01 -2.646839999999999749e-01 6.008740000000000192e-01 4.537510000000000154e-01 -1.939599999999999935e-01 6.346600000000000019e-01 5.740359999999999907e-01 -6.147439999999999571e-01 5.710119999999999640e-01 4.756710000000000105e-01 7.599939999999999474e-01 6.478499999999999537e-02 3.995650000000000035e-01 9.762800000000000367e-01 5.421399999999999830e-02 3.932869999999999977e-01 8.038309999999999622e-01 1.949079999999999979e-01 2.636279999999999735e-01 8.602760000000000407e-01 1.268809999999999938e-01 6.463680000000000536e-01 7.842090000000000449e-01 1.122029999999999972e-01 5.348739999999999606e-01 8.028319999999999901e-01 1.024680000000000035e-01 3.651360000000000161e-01 1.013225000000000042e+00 1.148870000000000030e-01 5.712939999999999685e-01 9.549009999999999998e-01 3.926520000000000010e-01 5.083769999999999678e-01