7.921207947979561936e+01 -1.832107014473691913e-03 0.000000000000000000e+00 -1.832107014473691913e-03 7.920994757345151527e+01 0.000000000000000000e+00 0.000000000000000000e+00 0.000000000000000000e+00 7.377377223647879134e+01
7.941187031142086994e+01 -7.486918463740148411e-02 -8.835138840898301704e-02 -7.486918463740148411e-02 7.909958810910694638e+01 1.312805485586507892e-01 -8.835138840898301704e-02 1.312805485586507892e-01 7.369734619918220631e+01
8.750678464891799990e+01 -5.544963721875960871e+00 4.712942516715326491e+00 -5.544963721875960871e+00 9.090153204623399574e+01 1.052689740349407099e+00 4.712942516715326491e+00 1.052689740349407099e+00 5.261706336437031695e+01
8.791485022748707934e+01 -5.558920935058752733e+00 4.669224219676787691e+00 -5.558920935058752733e+00 9.063694999592917156e+01 8.013367925598064989e-01 4.669224219676787691e+00 8.013367925598064989e-01 5.249920088974103294e+01
9.080644364190079898e+01 8.087046212185049043e+00 -7.819365717510768476e+00 8.087046212185049043e+00 5.566587143072964494e+01 8.347658929060830957e+00 -7.819365717510768476e+00 8.347658929060830957e+00 5.993154634681312842e+01
9.074466477385331586e+01 8.081991431645507262e+00 -8.005433348115737147e+00 8.081991431645507262e+00 5.541102312495944204e+01 8.243476960205086357e+00 -8.005433348115737147e+00 8.243476960205086357e+00 6.034645378804531646e+01
1.132834690261897634e+02 -1.379062602677051963e+01 6.705031896541394865e+00 -1.379062602677051963e+01 1.101272503855986571e+02 3.351279869012446344e+00 6.705031896541394865e+00 3.351279869012446344e+00 1.181957338143986362e+02
1.135063841207269633e+02 -1.368790437476702060e+01 6.597676185049015984e+00 -1.368790437476702060e+01 1.099552818902356961e+02 3.435361313777022918e+00 6.597676185049015984e+00 3.435361313777022918e+00 1.181321838276472960e+02
8.130773432378525456e+01 -4.910655835303779360e-01 6.931343872667071082e+00 -4.910655835303779360e-01 5.315199074343466634e+01 -3.184087494338049940e+00 6.931343872667071082e+00 -3.184087494338049940e+00 5.882218315878395742e+01
8.106011770982645714e+01 -4.353473563284808168e-01 6.970077288038392993e+00 -4.353473563284808168e-01 5.329272101538830242e+01 -3.177950049910847952e+00 6.970077288038392993e+00 -3.177950049910847952e+00 5.890470108115144399e+01
7.173095078097878741e+01 1.343891979225216105e+01 7.536647787058407211e+00 1.343891979225216105e+01 8.468060443735075182e+01 8.612891168535140807e+00 7.536647787058407211e+00 8.612891168535140807e+00 4.914149661537264535e+01
7.166801381400371440e+01 1.315017853534951442e+01 7.534676710733183569e+00 1.315017853534951442e+01 8.468901543424217948e+01 8.585174693106900179e+00 7.534676710733183569e+00 8.585174693106900179e+00 4.914825255089316158e+01
5.888449157325936056e+01 -1.192521765792187516e+01 -3.430316533993432060e+00 -1.192521765792187516e+01 7.392198040229546052e+01 6.014602522810130303e+00 -3.430316533993432060e+00 6.014602522810130303e+00 9.529717561138046733e+01
5.896384560499889460e+01 -1.174156865109237913e+01 -3.389906581310614175e+00 -1.174156865109237913e+01 7.408545519152269776e+01 5.970956750768038113e+00 -3.389906581310614175e+00 5.970956750768038113e+00 9.494375945611342615e+01
7.729367067782369816e+01 -1.496507656488406779e+00 -6.994617891694368872e+00 -1.496507656488406779e+00 9.717610661372121683e+01 -4.490077385564687162e+00 -6.994617891694368872e+00 -4.490077385564687162e+00 1.001157097534610472e+02
7.758592496447926123e+01 -1.564011238920210545e+00 -7.106289956717106726e+00 -1.564011238920210545e+00 9.709865434239341653e+01 -4.558585419386576909e+00 -7.106289956717106726e+00 -4.558585419386576909e+00 9.988001788707681783e+01
1.139321520288551994e+02 9.745214109287715587e+00 -5.709995404816295972e-01 9.745214109287715587e+00 1.117642924546118053e+02 8.785116501727726401e+00 -5.709995404816295972e-01 8.785116501727726401e+00 6.446945986035447618e+01
1.142354619066648951e+02 9.537797868970525172e+00 -6.220699388010253461e-01 9.537797868970525172e+00 1.115609439338913802e+02 8.685252197805914065e+00 -6.220699388010253461e-01 8.685252197805914065e+00 6.438074645456541134e+01
8.647877586441431674e+01 -1.129045393030067501e+01 2.138688393848585889e+00 -1.129045393030067501e+01 5.623852567349231890e+01 -8.148343912305239911e+00 2.138688393848585889e+00 -8.148343912305239911e+00 8.022136222505847059e+01
8.667172195850980643e+01 -1.119959082718030530e+01 2.120112619127751064e+00 -1.119959082718030530e+01 5.611753888215334030e+01 -8.020272825223967672e+00 2.120112619127751064e+00 -8.020272825223967672e+00 8.017222892175243487e+01
5.992775091315903069e+01 9.493134146319633260e+00 -3.681919922600684458e+00 9.493134146319633260e+00 6.067880337934154511e+01 -1.277451206014287965e+00 -3.681919922600684458e+00 -1.277451206014287965e+00 9.948638991909116669e+01
6.011054716258424691e+01 9.362871643879485006e+00 -3.746516124229616551e+00 9.362871643879485006e+00 6.058297652732007776e+01 -1.252987255401477373e+00 -3.746516124229616551e+00 -1.252987255401477373e+00 9.940162429030044677e+01
9.942372639445440541e+01 5.339097365481492830e+00 1.319678988628485650e+00 5.339097365481492830e+00 6.789255701309541280e+01 -1.854588058939995454e+00 1.319678988628485650e+00 -1.854588058939995454e+00 1.058515716870157064e+02
9.936648481685716661e+01 5.356466656466200682e+00 1.439384921753174895e+00 5.356466656466200682e+00 6.784770861304002665e+01 -2.032268711332677391e+00 1.439384921753174895e+00 -2.032268711332677391e+00 1.060600014658843833e+02
1.147431242545218879e+02 -1.473449018656740783e+01 -4.976766955445235396e+00 -1.473449018656740783e+01 7.676747582878050480e+01 1.426434994271973844e+00 -4.976766955445235396e+00 1.426434994271973844e+00 7.820403857632531697e+01
1.151246711557018756e+02 -1.427638771702229015e+01 -5.242925205434339375e+00 -1.427638771702229015e+01 7.633568901351262070e+01 1.262427625960813593e+00 -5.242925205434339375e+00 1.262427625960813593e+00 7.837614161432951221e+01
9.473394810916229858e+01 8.528326752461344640e+00 -8.741086968863367446e+00 8.528326752461344640e+00 9.282360066143267829e+01 7.263612187585324342e+00 -8.741086968863367446e+00 7.263612187585324342e+00 4.372541607647523421e+01
9.461232704788959325e+01 8.689080442908739599e+00 -8.570766389198086088e+00 8.689080442908739599e+00 9.290245966594528682e+01 7.234624337069317512e+00 -8.570766389198086088e+00 7.234624337069317512e+00 4.377956149810399467e+01
1.058900565818096737e+02 -1.144662957653989288e+01 7.738862835958459918e-01 -1.144662957653989288e+01 8.206453872712398834e+01 -4.797532676893482950e+00 7.738862835958459918e-01 -4.797532676893482950e+00 4.913151702178516445e+01
1.054152990895995856e+02 -1.119752873737493459e+01 6.928187835121081273e-01 -1.119752873737493459e+01 8.210447228915380435e+01 -4.672003880653934793e+00 6.928187835121081273e-01 -4.672003880653934793e+00 4.938209200694463163e+01
6.747012668431835891e+01 -1.180055049699505609e+01 9.079809011627434367e-01 -1.180055049699505609e+01 4.976551719815999064e+01 6.547360414001084372e+00 9.079809011627434367e-01 6.547360414001084372e+00 9.905258154001165849e+01
6.748492346519995522e+01 -1.193831619363686158e+01 1.018405220471334305e+00 -1.193831619363686158e+01 4.966361293504408536e+01 6.444363699789814603e+00 1.018405220471334305e+00 6.444363699789814603e+00 9.929740921458426328e+01
9.515017811036236139e+01 6.263077710030025003e+00 -2.797140413444627605e+00 6.263077710030025003e+00 9.684803931513870623e+01 -4.130585378332630064e+00 -2.797140413444627605e+00 -4.130585378332630064e+00 1.120151685417059184e+02
9.573318148346895384e+01 5.892817803432410351e+00 -3.029512002408560445e+00 5.892817803432410351e+00 9.696496819108730847e+01 -4.346816194329409910e+00 -3.029512002408560445e+00 -4.346816194329409910e+00 1.111796554828103609e+02
8.267993669427337977e+01 1.332191112574781400e+01 -2.533305842357866045e+00 1.332191112574781400e+01 1.104575639728317924e+02 4.129405604898789051e+00 -2.533305842357866045e+00 4.129405604898789051e+00 7.776591436759953524e+01
8.295956793655552985e+01 1.327852489696529936e+01 -2.637769371718564404e+00 1.327852489696529936e+01 1.105378057425654390e+02 4.091342839770568673e+00 -2.637769371718564404e+00 4.091342839770568673e+00 7.744455060476036579e+01
1.193163562938151046e+02 -3.839081505902506741e+00 -6.917119038617546067e+00 -3.839081505902506741e+00 1.086988090005063441e+02 1.913901399196693109e+00 -6.917119038617546067e+00 1.913901399196693109e+00 6.379749017077400453e+01
1.193461113274564269e+02 -4.016944852042572123e+00 -7.033123012034509181e+00 -4.016944852042572123e+00 1.086073613080688887e+02 1.895920111357868088e+00 -7.033123012034509181e+00 1.895920111357868088e+00 6.388848195165603272e+01
6.818614638012708440e+01 -1.306020019111343267e+01 7.188838884751056924e+00 -1.306020019111343267e+01 6.970401131328779343e+01 -4.980436673879523823e+00 7.188838884751056924e+00 -4.980436673879523823e+00 3.871994861394730236e+01
6.815797857793872083e+01 -1.312184553795801101e+01 7.276520504723486660e+00 -1.312184553795801101e+01 6.957671741540400490e+01 -5.124666505986621878e+00 7.276520504723486660e+00 -5.124666505986621878e+00 3.892747922595449950e+01
9.348996647290665862e+01 4.725197930991792639e+00 2.016848629970613427e+00 4.725197930991792639e+00 8.325454988723443250e+01 2.388280895399906179e+00 2.016848629970613427e+00 2.388280895399906179e+00 6.708018287112194855e+01
9.323014361267702554e+01 4.711470104893433763e+00 2.073644350873551812e+00 4.711470104893433763e+00 8.359655840958890849e+01 2.489828457775488779e+00 2.073644350873551812e+00 2.489828457775488779e+00 6.703615969394253682e+01
6.032146373478314416e+01 -7.488647422467051840e+00 5.981327457991906016e+00 -7.488647422467051840e+00 8.756722251165793125e+01 7.001371343807607062e+00 5.981327457991906016e+00 7.001371343807607062e+00 8.426947733825940645e+01
6.050087176096573671e+01 -7.401280433364573419e+00 6.026884079462514698e+00 -7.401280433364573419e+00 8.734000239469919791e+01 6.851803562387317470e+00 6.026884079462514698e+00 6.851803562387317470e+00 8.426505233899203517e+01
1.006770487872008459e+02 -3.788214221068431781e-02 6.990568982576403911e+00 -3.788214221068431781e-02 7.655351191468051297e+01 -9.337235081176418205e-01 6.990568982576403911e+00 -9.337235081176418205e-01 4.728544796034069719e+01
1.006221524583514935e+02 -2.970812337274291726e-01 7.085395375779378391e+00 -2.970812337274291726e-01 7.639623891539199008e+01 -8.506792933866497153e-01 7.085395375779378391e+00 -8.506792933866497153e-01 4.751493009361782072e+01
1.096462508157932376e+02 -6.822102693334580081e+00 -8.717922991064755323e+00 -6.822102693334580081e+00 9.386407473602726270e+01 5.569292287575248857e+00 -8.717922991064755323e+00 5.569292287575248857e+00 1.176098526980763239e+02
1.096350014287591534e+02 -7.108771904026399469e+00 -8.701517634973365389e+00 -7.108771904026399469e+00 9.438248899269090941e+01 5.595152199673349536e+00 -8.701517634973365389e+00 5.595152199673349536e+00 1.169751130405234960e+02
4.244150953354174760e+01 2.347916743926058647e+00 6.156910332956143428e+00 2.347916743926058647e+00 4.545157763776506243e+01 -2.653074649481441671e-01 6.156910332956143428e+00 -2.653074649481441671e-01 8.515626391862899425e+01
4.246891522748111925e+01 2.057450906444107996e+00 6.073710388663956294e+00 2.057450906444107996e+00 4.516410217298607677e+01 -3.203604807548988687e-01 6.073710388663956294e+00 -3.203604807548988687e-01 8.556449157786435933e+01
8.801207500610804857e+01 -8.657132319892141936e+00 1.672659503642673684e+00 -8.657132319892141936e+00 9.953373675971973000e+01 -4.843798720260489965e+00 1.672659503642673684e+00 -4.843798720260489965e+00 9.317646605880457855e+01
8.835725192857053401e+01 -8.640942717524225714e+00 1.691388751809769664e+00 -8.640942717524225714e+00 9.910737474632693988e+01 -4.744140221908481614e+00 1.691388751809769664e+00 -4.744140221908481614e+00 9.323174301025228772e+01
6.248511809104003589e+01 -6.401374144997130422e+00 5.994426622692307305e+00 -6.401374144997130422e+00 5.324932769268555433e+01 -7.170396999265468807e+00 5.994426622692307305e+00 -7.170396999265468807e+00 3.751007725874010390e+01
6.251316965609866827e+01 -6.670388119804351312e+00 5.859465646004542450e+00 -6.670388119804351312e+00 5.303512578719156778e+01 -7.140708125997456079e+00 5.859465646004542450e+00 -7.140708125997456079e+00 3.771641124446976079e+01
1.117339081013192299e+02 -1.454073667488999178e+01 4.558947853280634455e+00 -1.454073667488999178e+01 1.149222599664978333e+02 -5.430003289584386827e+00 4.558947853280634455e+00 -5.430003289584386827e+00 1.152539365018992470e+02
1.116436925589777047e+02 -1.437750671335163410e+01 4.604212403372881290e+00 -1.437750671335163410e+01 1.152748260554601245e+02 -5.759206018635044444e+00 4.604212403372881290e+00 -5.759206018635044444e+00 1.150423839761472635e+02
4.306897178898644540e+01 1.683065609077582403e+00 5.006546446751483970e+00 1.683065609077582403e+00 4.815918896241352343e+01 2.420189196756350025e+00 5.006546446751483970e+00 2.420189196756350025e+00 3.572732917532076158e+01
4.318743092824502128e+01 1.904870044998572043e+00 5.113705761642100001e+00 1.904870044998572043e+00 4.817102963627508672e+01 2.470310411765090919e+00 5.113705761642100001e+00 2.470310411765090919e+00 3.565647040585336214e+01
9.613811669118236125e+01 5.266220434207385281e+00 -7.134135797153339453e+00 5.266220434207385281e+00 5.765823496048711405e+01 -1.661353853279759152e+00 -7.134135797153339453e+00 -1.661353853279759152e+00 4.219307008887338384e+01
9.552847826389977115e+01 5.250011884766126791e+00 -7.145085868308188815e+00 5.250011884766126791e+00 5.764442381707254270e+01 -1.599488557130973598e+00 -7.145085868308188815e+00 -1.599488557130973598e+00 4.262735102511140894e+01
2.866778239753666213e+01 -1.324129302578952189e-03 0.000000000000000000e+00 -1.324129302578952189e-03 2.866623886308801517e+01 0.000000000000000000e+00 0.000000000000000000e+00 0.000000000000000000e+00 2.685270521153493917e+01
2.854093350479876179e+01 -6.567719832922491729e-02 -3.752020458397772873e-02 -6.567719832922491729e-02 2.860313293910217070e+01 -4.082090480770287494e-02 -3.752020458397772873e-02 -4.082090480770287494e-02 2.708435277983102196e+01
2.869212073533797280e+01 1.154021267364761272e+01 1.092989790504267811e+00 1.154021267364761272e+01 4.736926232359021327e+01 -2.381535639070325505e+00 1.092989790504267811e+00 -2.381535639070325505e+00 4.454657225625490469e+01
2.868702837433375663e+01 1.156164380916534284e+01 1.056003465173667610e+00 1.156164380916534284e+01 4.753951817923106660e+01 -2.312623404713312070e+00 1.056003465173667610e+00 -2.312623404713312070e+00 4.438229381771898829e+01
1.350013656603873891e+01 8.770865799437972399e-01 1.103844405008465479e+00 8.770865799437972399e-01 5.709402088146321574e+01 -4.295455690747376210e+00 1.103844405008465479e+00 -4.295455690747376210e+00 2.948613122805637232e+01
1.343216586553802294e+01 7.927302047790625306e-01 1.123842519180533905e+00 7.927302047790625306e-01 5.735393533187526316e+01 -4.244440949711581368e+00 1.123842519180533905e+00 -4.244440949711581368e+00 2.938839509410126283e+01
4.187375872330672877e+00 -4.327971649762160089e-01 6.924400425451508134e+00 -4.327971649762160089e-01 1.788499344539761537e+01 5.514530725435676572e+00 6.924400425451508134e+00 5.514530725435676572e+00 4.644555622567678199e+01
4.383900509895723552e+00 -2.176801760573028599e-01 6.972248531599808175e+00 -2.176801760573028599e-01 1.774133040681950746e+01 5.508884707297128536e+00 6.972248531599808175e+00 5.508884707297128536e+00 4.632290859690910168e+01
5.507032283929532923e+01 -3.398884865032911762e+00 -7.539166949057818812e+00 -3.398884865032911762e+00 2.550912132687054878e+01 9.624303796065721839e-01 -7.539166949057818812e+00 9.624303796065721839e-01 8.535999129829177079e+00
5.498829828847939183e+01 -3.536522869805014402e+00 -7.557583491598443004e+00 -3.536522869805014402e+00 2.578076869810712424e+01 1.015395023848524980e+00 -7.557583491598443004e+00 1.015395023848524980e+00 8.378217851183853426e+00
3.212355754213264447e+01 -2.737810136913747527e+00 -1.178046947109874232e+00 -2.737810136913747527e+00 4.456959819848314908e+01 -3.838519621266188508e+00 -1.178046947109874232e+00 -3.838519621266188508e+00 2.525337061998682575e+00
3.196969465513162945e+01 -2.773659989966923867e+00 -1.109314379344121360e+00 -2.773659989966923867e+00 4.449869502657534781e+01 -3.871032170450970256e+00 -1.109314379344121360e+00 -3.871032170450970256e+00 2.698843916485206051e+00
4.687856039548934461e+01 -1.164691027610445495e+01 6.468555987975876498e+00 -1.164691027610445495e+01 5.333227025702124280e+01 9.468843154440977905e-01 6.468555987975876498e+00 9.468843154440977905e-01 1.303442921567101465e+01
4.663564995761031184e+01 -1.161081696908173555e+01 6.477827002754083630e+00 -1.161081696908173555e+01 5.371999341531410010e+01 8.823263030561691034e-01 6.477827002754083630e+00 8.823263030561691034e-01 1.298144008093950319e+01
8.956487418049442484e-01 9.636589063954669854e+00 7.825184288906929242e-02 9.636589063954669854e+00 3.653247618951721165e+01 3.752384846254561701e+00 7.825184288906929242e-02 3.752384846254561701e+00 1.802504304029979920e+01
1.021783985853606191e+00 9.708426950335979910e+00 1.298447570733894108e-01 9.708426950335979910e+00 3.635805433637148809e+01 3.790504714723407886e+00 1.298447570733894108e-01 3.790504714723407886e+00 1.806147533603523314e+01
2.953525564047135532e+01 -6.927963030085325435e+00 4.407157089106545023e+00 -6.927963030085325435e+00 5.734884464589944031e+01 -1.270309851580655680e+00 4.407157089106545023e+00 -1.270309851580655680e+00 2.514811099992200738e+01
2.940504605176881370e+01 -6.537256681679019188e+00 4.402057472156691631e+00 -6.537256681679019188e+00 5.744668538579152539e+01 -1.243237413843527372e+00 4.402057472156691631e+00 -1.243237413843527372e+00 2.517151247035571515e+01
4.346978887438626771e+01 -3.894915841016493907e+00 6.393632730247730045e+00 -3.894915841016493907e+00 1.468760807577676175e+01 -5.364066593544530193e+00 6.393632730247730045e+00 -5.364066593544530193e+00 2.905808270631606050e+01
4.347746477449339864e+01 -3.920785969044064068e+00 6.420450334177356666e+00 -3.920785969044064068e+00 1.461403551496022324e+01 -5.432559684159980584e+00 6.420450334177356666e+00 -5.432559684159980584e+00 2.921640343113466542e+01
4.974951209584117606e+01 5.271839886173463441e+00 6.227529747677404970e+00 5.271839886173463441e+00 4.271230950856998732e+01 8.610358444832321823e+00 6.227529747677404970e+00 8.610358444832321823e+00 3.109133418313343000e+00
4.988536428662730771e+01 5.439988491499396339e+00 6.171079145982973024e+00 5.439988491499396339e+00 4.248616168559397011e+01 8.584152869255643026e+00 6.171079145982973024e+00 8.584152869255643026e+00 3.193637572245288769e+00
3.521763068795839757e+01 -8.462020469189990735e+00 -2.659345394540072238e+00 -8.462020469189990735e+00 4.411226241612165921e+01 4.074279256987033193e+00 -2.659345394540072238e+00 4.074279256987033193e+00 2.484563617722029605e+01
3.524778917332208295e+01 -8.247323989269089495e+00 -2.644751843192010732e+00 -8.247323989269089495e+00 4.430869462075896337e+01 3.994186760054915464e+00 -2.644751843192010732e+00 3.994186760054915464e+00 2.458818175142575768e+01
2.719405739259619992e+01 -1.124882547545281497e+01 -2.579657431587599525e+00 -1.124882547545281497e+01 1.443602750626219944e+01 -3.892170381587865435e+00 -2.579657431587599525e+00 -3.892170381587865435e+00 8.344185294280679344e+00
2.731815140698101985e+01 -1.126650693772897682e+01 -2.704600377278668866e+00 -1.126650693772897682e+01 1.441955429040329761e+01 -3.868777388453625399e+00 -2.704600377278668866e+00 -3.868777388453625399e+00 8.325388375753286496e+00
1.062509197893892932e+01 1.680230640381446428e+00 4.107022317501054509e+00 1.680230640381446428e+00 2.987476303830564106e+01 1.959535494117890853e+00 4.107022317501054509e+00 1.959535494117890853e+00 5.094860471842928007e+01
1.075065207838715686e+01 1.912317817521531849e+00 4.000008736083109362e+00 1.912317817521531849e+00 2.964299572778861247e+01 1.853768817919167367e+00 4.000008736083109362e+00 1.853768817919167367e+00 5.105417985772797351e+01
5.279868095443389109e+01 2.880081245891489949e+00 -1.491773841826631086e+00 2.880081245891489949e+00 2.575115141154627452e+01 3.469854963483904431e+00 -1.491773841826631086e+00 3.469854963483904431e+00 4.298764217842409607e+01
5.269424369728331925e+01 2.748384056309200130e+00 -1.386243708690989340e+00 2.748384056309200130e+00 2.610017318747921422e+01 3.580616630115087684e+00 -1.386243708690989340e+00 3.580616630115087684e+00 4.264901211331826403e+01
2.822874301599355462e+01 1.065650402131330310e+01 4.777016531229689278e+00 1.065650402131330310e+01 7.137860319818934762e+00 -3.772221736393736702e+00 4.777016531229689278e+00 -3.772221736393736702e+00 3.015633987101470126e+01
2.804036825348578787e+01 1.035156860726219286e+01 4.732730350020255550e+00 1.035156860726219286e+01 7.271922430103900048e+00 -3.768808054628485227e+00 4.732730350020255550e+00 -3.768808054628485227e+00 3.007881028143760105e+01
8.133657068894221354e+00 6.208107121198708889e+00 -2.811965027757921121e+00 6.208107121198708889e+00 4.486944693890171010e+01 -5.568067862828061543e+00 -2.811965027757921121e+00 -5.568067862828061543e+00 -2.017022829820850571e+00
8.109276560782513243e+00 6.433019236584648581e+00 -2.777283759912748451e+00 6.433019236584648581e+00 4.490593168013465686e+01 -5.650363201101794353e+00 -2.777283759912748451e+00 -5.650363201101794353e+00 -1.951834781325233692e+00
3.390306914104343150e+01 -3.894480848240108539e+00 5.630660588976850178e+00 -3.894480848240108539e+00 5.438903331398200436e+01 5.440327066201047224e+00 5.630660588976850178e+00 5.440327066201047224e+00 3.850033633212505180e+01
3.396053509790766611e+01 -3.677703327791860488e+00 5.649326169611524229e+00 -3.677703327791860488e+00 5.443325200525592322e+01 5.325455044037837204e+00 5.649326169611524229e+00 5.325455044037837204e+00 3.837323332936949072e+01
1.880329030259866130e+01 3.485993504888710071e+00 1.114230269564124409e+00 3.485993504888710071e+00 2.279079578771262860e+01 -2.940841353217198861e+00 1.114230269564124409e+00 -2.940841353217198861e+00 5.666434036605433100e+00
1.888883255257313110e+01 3.509320333277994308e+00 1.201726143887887011e+00 3.509320333277994308e+00 2.278417758862650899e+01 -2.880555827750343578e+00 1.201726143887887011e+00 -2.880555827750343578e+00 5.636067833030437235e+00
1.408609879135131848e+01 8.857910615179218183e+00 5.748026798833930862e+00 8.857910615179218183e+00 2.493138283454014115e+01 1.392882665652800167e+00 5.748026798833930862e+00 1.392882665652800167e+00 3.520903856183925740e+01
1.403849705580268115e+01 8.807687160661384240e+00 5.788743857739878429e+00 8.807687160661384240e+00 2.512408208533820897e+01 1.324871051388304188e+00 5.788743857739878429e+00 1.324871051388304188e+00 3.506616553541218195e+01
7.014162398999150128e+01 -5.260825125292483584e+00 7.063353852540169342e+00 -5.260825125292483584e+00 7.586209161371955645e+01 4.473795844789620446e+00 7.063353852540169342e+00 4.473795844789620446e+00 7.046756501594714450e+01
7.005269140841582498e+01 -5.089985239697123909e+00 6.995534265050348921e+00 -5.089985239697123909e+00 7.577129211329712177e+01 4.656288489253094021e+00 6.995534265050348921e+00 4.656288489253094021e+00 7.069555385334899711e+01
5.010259137157850517e+01 -1.162898411213944172e+01 -6.206413912667703592e+00 -1.162898411213944172e+01 4.305642869864085043e+01 -5.186695220330093115e+00 -6.206413912667703592e+00 -5.186695220330093115e+00 4.384104949050392008e+01
5.015043190368152892e+01 -1.173343054934873564e+01 -6.196040470173927339e+00 -1.173343054934873564e+01 4.331101677314850917e+01 -5.120191786937643208e+00 -6.196040470173927339e+00 -5.120191786937643208e+00 4.354756472472434581e+01
1.485600745256609301e+01 -7.455143072630143752e-01 -6.716716656140733654e+00 -7.455143072630143752e-01 -1.699642753149535890e-01 -4.836138209600752802e+00 -6.716716656140733654e+00 -4.836138209600752802e+00 5.651541901037160365e+00
1.506654219394969196e+01 -5.466241018162603105e-01 -6.728852930874497318e+00 -5.466241018162603105e-01 -1.864738008245829248e-01 -4.817716142622783693e+00 -6.728852930874497318e+00 -4.817716142622783693e+00 5.467149928807724990e+00
1.644370816671843372e+01 8.521008508279805937e+00 -3.557665970603416383e+00 8.521008508279805937e+00 3.743507946733003422e+01 4.529914711906051217e+00 -3.557665970603416383e+00 4.529914711906051217e+00 2.561084927195733130e+01
1.654303827496552159e+01 8.575283592325106952e+00 -3.620229834348777320e+00 8.575283592325106952e+00 3.769071393459235253e+01 4.539138635982526537e+00 -3.620229834348777320e+00 4.539138635982526537e+00 2.530182269788116045e+01
2.759116564463625210e+01 -3.394502050625770817e+00 -4.981192243258043106e+00 -3.394502050625770817e+00 1.932800276429204089e+01 -6.108258875378298924e+00 -4.981192243258043106e+00 -6.108258875378298924e+00 1.498780771294555159e+01
2.760099410003717324e+01 -3.539751952114942757e+00 -5.049171904136523281e+00 -3.539751952114942757e+00 1.943790152092226364e+01 -6.163454698545253407e+00 -5.049171904136523281e+00 -6.163454698545253407e+00 1.494664555495304548e+01
3.263461126113080013e+01 8.042144007155885177e+00 6.993644413219405997e+00 8.042144007155885177e+00 3.135662243361164414e+01 -2.538493225288453559e+00 6.993644413219405997e+00 -2.538493225288453559e+00 5.919304384451012169e+01
3.288492020223785772e+01 8.045471785711109547e+00 6.989201125796375536e+00 8.045471785711109547e+00 3.138116362870340481e+01 -2.671617491131137445e+00 6.989201125796375536e+00 -2.671617491131137445e+00 5.885698133094338402e+01
2.798315066112026628e+01 -2.901400497960056502e+00 4.026982813319810006e+00 -2.901400497960056502e+00 6.776839317410655816e+00 3.077428201573114919e+00 4.026982813319810006e+00 3.077428201573114919e+00 4.861904280023052394e+01
2.797306788732314686e+01 -2.862078643166916958e+00 4.014532947068690127e+00 -2.862078643166916958e+00 6.947239157597697279e+00 2.983168230296848744e+00 4.014532947068690127e+00 2.983168230296848744e+00 4.830734930469352406e+01
5.424509233991206258e+01 -8.755643149650023105e+00 7.389412429678523964e+00 -8.755643149650023105e+00 1.622774042321812615e+01 7.996583474684207715e+00 7.389412429678523964e+00 7.996583474684207715e+00 2.249650708665747345e+01
5.432794399535480068e+01 -8.870261860411433830e+00 7.470724433659352570e+00 -8.870261860411433830e+00 1.626857665838091549e+01 7.941999666692172610e+00 7.470724433659352570e+00 7.941999666692172610e+00 2.246266734985645286e+01
7.989787804077685074e+00 2.409147094797802757e-01 -1.980930006172443081e+00 2.409147094797802757e-01 2.209958530223340745e+01 5.607227175792461438e+00 -1.980930006172443081e+00 5.607227175792461438e+00 3.299283826802996344e+01
8.187700163578989887e+00 2.650346924309229246e-01 -1.975325249385966098e+00 2.650346924309229246e-01 2.224287374115124649e+01 5.712350540885167582e+00 -1.975325249385966098e+00 5.712350540885167582e+00 3.260747901649032343e+01
5.092278168948109141e+01 -2.343846485911377009e+00 -4.618535918225888937e-01 -2.343846485911377009e+00 4.374248996552952207e+01 7.389187128662525694e+00 -4.618535918225888937e-01 7.389187128662525694e+00 2.053695698842977180e+01
5.096908472823395897e+01 -2.151996674220697070e+00 -3.915121868489833123e-01 -2.151996674220697070e+00 4.375785819966215229e+01 7.482390104150795196e+00 -3.915121868489833123e-01 7.482390104150795196e+00 2.052220076362100087e+01
1.269020110049636219e-01 -1.028564938775950463e-03 0.000000000000000000e+00 -1.028564938775950463e-03 1.257037226269860919e-01 0.000000000000000000e+00 0.000000000000000000e+00 0.000000000000000000e+00 2.828124160884076810e-01
1.006500891679742715e-01 6.982790363682138401e-02 2.726617275077241123e-02 6.982790363682138401e-02 1.368420789321801202e-02 -1.639773805973031295e-02 2.726617275077241123e-02 -1.639773805973031295e-02 4.575273602911034687e-01
1.990217988595038534e+01 5.183350694564754946e+00 5.706674753097123798e+00 5.183350694564754946e+00 -2.156968666310440597e+01 4.470999913552837768e+00 5.706674753097123798e+00 4.470999913552837768e+00 -1.302913414313876395e+01
1.981153645135310271e+01 5.288973754058629240e+00 5.756240939536363399e+00 5.288973754058629240e+00 -2.155214437901024027e+01 4.502096278520328454e+00 5.756240939536363399e+00 4.502096278520328454e+00 -1.294438171215436384e+01
1.679747631743268599e+01 -1.172137682780536494e+01 3.217151349383114756e+00 -1.172137682780536494e+01 2.834575083861076195e+01 1.061695735335743462e+00 3.217151349383114756e+00 1.061695735335743462e+00 -1.160413119984173180e+00
1.667319178323424111e+01 -1.200647238058655653e+01 3.150051477004299105e+00 -1.200647238058655653e+01 2.829028322526635009e+01 9.736974972377859805e-01 3.150051477004299105e+00 9.736974972377859805e-01 -9.111215017086975454e-01
-1.134752915598387268e+01 -2.136312539410691880e+00 -5.071635558591082393e+00 -2.136312539410691880e+00 -3.518739709429006268e+00 4.834458280344181347e+00 -5.071635558591082393e+00 4.834458280344181347e+00 -1.524498309435125343e+01
-1.132826020553423696e+01 -2.201964501474704239e+00 -5.050894863694090908e+00 -2.201964501474704239e+00 -3.446808723690022891e+00 4.727352183012990317e+00 -5.050894863694090908e+00 4.727352183012990317e+00 -1.531919926733755588e+01
8.600750939815158702e+00 -8.529653894463352870e+00 6.073273251447813159e+00 -8.529653894463352870e+00 -5.819631100285015179e+00 5.556002990043289458e+00 6.073273251447813159e+00 5.556002990043289458e+00 1.700912804219460384e+01
8.651364069914629695e+00 -8.417447917045409511e+00 6.052867949922585034e+00 -8.417447917045409511e+00 -5.760987275601277879e+00 5.603876734113641511e+00 6.052867949922585034e+00 5.603876734113641511e+00 1.684430327676771810e+01
-3.157669907822616473e+00 7.801983841626674909e+00 3.928359520840431607e+00 7.801983841626674909e+00 7.015473884591702181e+00 -2.205357183009072575e+00 3.928359520840431607e+00 -2.205357183009072575e+00 -2.556118504813463588e+00