-2.856261411699999826e+02
-2.872172444799999766e+02
-2.859644676600000253e+02
-2.860324558099999877e+02
-2.869051186500000199e+02
-2.862779756799999973e+02
-2.862319706299999780e+02
