3.292099999999999888e-02 -1.685367999999999977e+00 -6.617699999999999971e-02 -5.077509999999999524e-01 -1.702469999999999928e+00 5.468309999999999560e-01 1.269738000000000033e+00 3.589010000000000256e-01 3.658259999999999845e-01 9.947000000000000286e-02 -2.368003999999999998e+00 6.661939999999999529e-01 5.589009999999999811e-01 6.199299999999999949e-02 6.060929999999999929e-01 -4.934720000000000217e-01 8.707129999999999592e-01 -4.217400000000000315e-02 -3.211351000000000067e+00 1.166601999999999917e+00 -1.815574000000000021e+00 2.501180000000000070e-01 7.430200000000000138e-01 -2.209645000000000081e+00 4.197060000000000235e-01 7.993710000000000537e-01 2.561242000000000019e+00 9.496339999999999781e-01 1.216963999999999935e+00 -1.887870000000000104e-01 4.577499999999999902e-01 1.790353000000000083e+00 -3.675939999999999763e-01 4.917650000000000077e-01 -1.432279000000000080e+00 -1.634214000000000055e+00 7.630259999999999820e-01 -7.257810000000000095e-01 -3.137395999999999852e+00 -7.697040000000000548e-01 2.787700000000000178e-01 -1.224118999999999957e+00 -1.882158999999999915e+00 1.890068000000000081e+00 -3.812090000000000201e-01 7.205970000000000431e-01 5.614670000000000494e-01 -6.990089999999999915e-01 -6.467129999999999823e-01 1.421969999999999956e+00 1.193289000000000044e+00 -1.810956000000000010e+00 1.607024000000000008e+00 8.015899999999999415e-02 2.907390000000000252e-01 -1.258319999999999994e-01 -8.224209999999999576e-01 -8.941550000000000331e-01 -3.070399999999999796e-01 -3.813389999999999835e-01 2.565580000000000083e-01 -1.243870000000000031e+00 3.276109999999999856e-01 -9.184399999999999509e-02 -3.941569999999999796e-01 -6.514140000000000486e-01 -6.518209999999999837e-01 2.353500000000000036e-01 1.112710000000000088e+00 1.032605999999999913e+00 -9.959109999999999907e-01 -5.498089999999999922e-01 6.134340000000000348e-01 3.001759999999999984e-01 -4.288930000000000242e-01 2.252546999999999855e+00 -1.487840000000000051e+00 -1.016378000000000004e+00 1.072635999999999923e+00 -1.115436000000000094e+00 2.327993000000000201e+00 1.117358999999999991e+00 1.985411999999999955e+00 1.670738000000000056e+00 -1.993521000000000098e+00 3.695099999999999774e-02 -4.336800000000000099e-01 -7.138520000000000421e-01 2.124534999999999840e+00 1.863467999999999902e+00 1.034318999999999988e+00 1.679499999999999882e-01 4.002120000000000122e-01 1.297441999999999984e+00 1.132616999999999985e+00 6.720220000000000082e-01 1.172960000000000003e+00 -1.645659999999999901e-01 2.852370000000000183e-01 -2.579025999999999819e+00 -1.042831999999999981e+00 1.930649999999999866e-01 -6.466190000000000548e-01 -1.028918999999999917e+00 1.519397000000000109e+00 -7.875959999999999628e-01 -5.911499999999999533e-01 4.550900000000000084e-02 1.526313000000000031e+00 -2.338750999999999802e+00 -3.877639999999999976e-01
-2.634980000000000100e-01 -4.043700000000000072e-02 -5.758870000000000378e-01 -1.614716999999999958e+00 -9.454270000000000174e-01 8.690989999999999549e-01 -1.899250000000000105e-01 2.251196000000000197e+00 6.012250000000000094e-01 1.403890000000000138e-01 -1.709510000000000085e+00 -3.902340000000000253e-01 8.717300000000000049e-01 -4.468599999999999794e-01 9.578259999999999552e-01 -1.543341000000000074e+00 5.460559999999999858e-01 8.371939999999999937e-01 -1.519819999999999949e+00 4.792299999999999893e-01 5.554949999999999610e-01 -1.758959999999999968e-01 -4.817739999999999800e-01 -1.467052999999999940e+00 -1.328621000000000052e+00 -1.576259999999999883e-01 9.832530000000000436e-01 -6.874820000000000375e-01 8.649719999999999631e-01 9.570980000000000043e-01 2.173710000000000087e-01 2.224104000000000081e+00 -1.085409999999999986e+00 4.542500000000000010e-02 -1.867900000000000116e-02 -2.074993999999999783e+00 -3.471790000000000154e-01 -7.965480000000000338e-01 -2.339849000000000068e+00 -8.795669999999999877e-01 4.443920000000000092e-01 1.516688999999999954e+00 -1.627770000000000050e-01 -1.085490000000000066e-01 -1.312440999999999969e+00 -1.231967000000000034e+00 -1.116543000000000063e+00 -1.219611000000000001e+00 3.720609999999999751e-01 -6.598180000000000156e-01 -6.248559999999999670e-01 9.621880000000000432e-01 2.069104999999999972e+00 2.517659999999999898e-01 8.453939999999999788e-01 -1.819935000000000080e+00 -1.282424000000000008e+00 -1.628380000000000105e-01 7.674800000000000511e-01 -9.304120000000000168e-01 1.727330999999999950e+00 6.803199999999999525e-02 1.692731999999999903e+00 -4.759700000000000042e-01 -9.644319999999999560e-01 6.300160000000000204e-01 4.439810000000000145e-01 2.550339999999999829e-01 4.334819999999999784e-01 -2.570009999999999795e-01 -1.120171000000000028e+00 5.182219999999999605e-01 -3.515639999999999876e-01 -6.959899999999999420e-02 -1.761603999999999948e+00 4.383219999999999894e-01 1.021711000000000036e+00 -4.742400000000000088e-02 -3.763299999999999979e-01 -4.340379999999999794e-01 9.777639999999999665e-01 8.047840000000000549e-01 9.429450000000000331e-01 1.597361999999999949e+00 1.111132999999999926e+00 -1.246428000000000091e+00 -1.172738999999999976e+00 4.205899999999999916e-02 -1.746520000000000017e-01 -2.204800000000000093e-01 1.165972000000000008e+00 1.404765000000000041e+00 9.728820000000000245e-01 1.377988999999999908e+00 3.663790000000000102e-01 -9.841170000000000195e-01 2.364905999999999953e+00 -1.107194999999999929e+00 -2.144530000000000047e-01 -1.684058000000000055e+00 -1.657530000000000114e-01 8.806100000000000039e-02 1.927919999999999912e-01 1.307094999999999896e+00 1.018100999999999923e+00 2.193390000000000062e-01 5.433900000000000396e-01 2.191111999999999949e+00 -9.061900000000000510e-02 -1.971913999999999945e+00 5.460799999999999682e-02
-3.853650000000000131e-01 2.617990000000000039e-01 1.140049999999999952e-01 -2.152239999999999986e-01 -3.619689999999999852e-01 4.587450000000000139e-01 1.040019999999999972e-01 -2.468500000000000139e-01 2.257850000000000135e-01 4.880999999999999922e-03 1.451200000000000059e-02 -6.549699999999999966e-02 -2.595199999999999937e-02 3.566750000000000198e-01 4.147699999999999998e-02 -1.764270000000000005e-01 -9.984700000000000519e-02 1.318739999999999912e-01 -3.471469999999999834e-01 6.020870000000000388e-01 -9.634000000000000202e-03 -3.880700000000000122e-02 2.051209999999999978e-01 2.520220000000000238e-01 2.639960000000000084e-01 5.521679999999999922e-01 -9.193160000000000220e-01 -1.915570000000000050e-01 -1.550870000000000026e-01 -1.552060000000000106e-01 3.333960000000000257e-01 -3.039189999999999947e-01 4.906209999999999738e-01 -3.027279999999999971e-01 2.457499999999999962e-02 9.187599999999999933e-02 -2.659100000000000005e-02 2.782359999999999833e-01 4.653100000000000291e-02 -2.287690000000000001e-01 -9.648700000000000332e-02 -9.836000000000000298e-02 -2.660170000000000035e-01 7.052300000000000235e-02 1.389630000000000032e-01 2.853499999999999925e-01 -5.349760000000000071e-01 -5.554900000000000115e-02 3.003480000000000039e-01 -3.033620000000000205e-01 3.771680000000000033e-01 3.338100000000000095e-02 1.301940000000000042e-01 1.063090000000000007e-01 5.541000000000000092e-02 -2.705620000000000247e-01 8.630999999999999783e-03 2.610870000000000135e-01 -2.257879999999999887e-01 -2.089260000000000006e-01 2.420640000000000014e-01 -2.409189999999999943e-01 2.301640000000000075e-01 7.705800000000000149e-02 -4.297779999999999934e-01 -9.702700000000000213e-02 1.397500000000000131e-01 1.242700000000000055e-01 -2.642699999999999910e-02 5.903720000000000079e-01 1.414699999999999985e-02 -1.299999999999999920e-05 -1.349629999999999996e-01 -2.417890000000000039e-01 3.233099999999999863e-01 -5.595900000000000180e-02 -2.140980000000000105e-01 -1.476929999999999910e-01 6.999600000000000266e-02 -1.354859999999999953e-01 -1.689279999999999948e-01 3.398299999999999932e-02 2.076790000000000025e-01 -2.792339999999999822e-01 -4.228629999999999889e-01 1.829669999999999908e-01 -4.741159999999999819e-01 2.188100000000000114e-02 6.818000000000000276e-03 1.846129999999999993e-01 -3.336000000000000076e-02 2.003830000000000056e-01 -8.200000000000000344e-02 3.136149999999999771e-01 5.174779999999999935e-01 -1.334480000000000111e-01 5.534999999999999989e-03 5.337250000000000050e-01 -2.584179999999999811e-01 -1.163710000000000022e-01 -1.104870000000000019e-01 4.879300000000000304e-02 1.949059999999999959e-01 -1.393999999999999927e-02 7.019200000000000439e-02 -2.411139999999999950e-01 9.058599999999999985e-02 -1.955250000000000044e-01 -1.218010000000000065e-01 -3.885950000000000237e-01 3.423899999999999860e-02
-1.375358999999999998e+00 -5.433000000000000052e-01 1.417094999999999994e+00 1.026920999999999973e+00 -2.593827000000000105e+00 8.918559999999999821e-01 -2.963735999999999926e+00 1.378791000000000100e+00 1.829601999999999951e+00 -1.677038000000000029e+00 1.419276999999999900e+00 -9.147549999999999848e-01 1.498791999999999902e+00 -7.453199999999999825e-01 2.051083000000000212e+00 -9.508839999999999515e-01 6.027670000000000528e-01 -1.909599000000000046e+00 -1.739962999999999926e+00 1.382914999999999894e+00 -2.049970000000000125e-01 -1.535959000000000074e+00 4.425910000000000122e-01 3.606215999999999866e+00 -9.557780000000000165e-01 2.259580999999999840e+00 -2.152195999999999998e+00 -1.421600000000000086e-01 3.958349999999999924e-01 1.394652999999999921e+00 -3.519700000000000051e-01 1.322356000000000087e+00 6.152590000000000003e-01 1.686984000000000039e+00 -1.528019999999999934e-01 2.784400000000000069e-02 2.397154000000000007e+00 1.588608999999999938e+00 1.778356999999999966e+00 -6.986170000000000435e-01 -7.804450000000000554e-01 -2.443703999999999876e+00 4.312179999999999902e-01 -5.005799999999999833e-02 4.203200000000000269e-01 -1.101064000000000043e+00 6.923700000000000687e-02 -1.423602000000000034e+00 7.863000000000000198e-03 1.500307000000000057e+00 -3.869009999999999949e-01 -1.418012999999999968e+00 -2.089699999999999891e-02 2.683546000000000209e+00 2.464984999999999982e+00 -1.147742000000000040e+00 -1.480760999999999994e+00 2.369390000000000107e+00 3.390438000000000063e+00 -2.443925999999999821e+00 2.971960999999999853e+00 -9.231709999999999638e-01 -1.678880000000000094e-01 3.186904999999999877e+00 -2.118069999999999897e+00 7.528880000000000017e-01 -1.472947999999999924e+00 -1.244419999999999971e-01 2.168290999999999968e+00 1.973692000000000002e+00 -9.254299999999999748e-01 -1.159904999999999964e+00 1.549714000000000036e+00 -2.462127000000000177e+00 5.134199999999999875e-02 1.611661000000000010e+00 -2.065831000000000195e+00 -1.641534999999999966e+00 1.489965999999999902e+00 -2.347709000000000046e+00 5.535529999999999617e-01 -3.622635999999999967e+00 -1.160794000000000104e+00 -5.246140000000000247e-01 -1.985983999999999972e+00 2.893946000000000129e+00 -1.762569999999999970e+00 -7.913879999999999804e-01 3.236169999999999880e-01 -6.503100000000000547e-02 -1.334680000000000089e+00 1.691779999999999951e-01 -1.092889999999999917e+00 -7.789629999999999610e-01 1.798659999999999981e-01 1.108316999999999997e+00 -6.755299999999999638e-01 1.893980999999999915e+00 -7.177930000000000144e-01 -1.002544000000000102e+00 4.877859999999999974e-01 1.507280000000000009e-01 1.678219999999999990e-01 -1.018979000000000079e+00 1.200862000000000096e+00 8.949820000000000553e-01 -6.025449999999999973e-01 2.977090000000000014e-01 8.452009999999999801e-01 -1.917586999999999930e+00 -2.506854999999999833e+00
-1.976060000000000039e-01 1.191770000000000052e-01 -1.674544000000000032e+00 -1.058057000000000025e+00 -4.695489999999999942e-01 6.770909999999999984e-01 -2.118721999999999994e+00 5.922509999999999719e-01 3.738070000000000004e-01 1.372508000000000061e+00 -3.306970000000000187e-01 1.825118999999999936e+00 -1.008178999999999936e+00 -7.930169999999999719e-01 -4.858160999999999952e+00 2.689420999999999840e+00 8.513739999999999641e-01 8.026210000000000289e-01 6.074169999999999847e-01 -6.216100000000000098e-02 -1.210744999999999960e+00 3.190335000000000143e+00 -9.744699999999999473e-01 -7.946760000000000490e-01 3.212969999999999882e+00 1.144497000000000098e+00 -1.795199999999999907e+00 -9.631720000000000281e-01 5.929899999999999755e-02 -5.808100000000000068e-02 5.118500000000000133e-02 2.511179999999999968e+00 -8.232690000000000285e-01 1.155736000000000097e+00 -7.858939999999999815e-01 1.603841999999999990e+00 -3.086459999999999759e-01 3.318399999999999822e-02 1.416085999999999956e+00 4.054519999999999791e-01 -1.393890000000000129e-01 6.125420000000000309e-01 -2.029348999999999847e+00 1.355879999999999863e-01 8.577690000000000037e-01 6.883200000000000429e-01 -4.061580000000000190e-01 1.075569999999999998e-01 -1.402876000000000012e+00 -8.456050000000000511e-01 2.724679999999999880e-01 -2.626376000000000044e+00 7.284380000000000299e-01 3.362798999999999872e+00 6.743620000000000170e-01 -5.945200000000000484e-01 1.832581000000000016e+00 -2.256189000000000000e+00 3.826030000000000264e-01 1.250518999999999936e+00 4.479299999999999948e-02 -3.679400000000000032e-02 8.577799999999999314e-02 -1.278933000000000098e+00 -1.751055000000000028e+00 1.707019999999999926e-01 -1.810424000000000033e+00 -4.039299999999999835e-02 1.233959000000000028e+00 -2.969812000000000118e+00 -8.933050000000000157e-01 9.568969999999999976e-01 -1.172074999999999978e+00 2.022441000000000155e+00 1.329733999999999972e+00 -1.302419999999999967e-01 4.716040000000000232e-01 1.982919999999999960e-01 -5.332700000000000218e-01 -2.055216000000000154e+00 -1.929226000000000107e+00 2.637485999999999997e+00 1.432876999999999956e+00 3.370929999999999760e-01 8.863259999999999472e-01 -1.204760000000000053e+00 5.979320000000000190e-01 2.561226000000000003e+00 -2.547356000000000176e+00 -1.187213999999999992e+00 1.976576000000000111e+00 1.419831999999999983e+00 1.238093000000000110e+00 6.132060000000000288e-01 -2.319489999999999885e-01 -4.019579999999999820e-01 -1.281088999999999922e+00 3.681760000000000033e-01 -2.907613000000000003e+00 -1.754753000000000007e+00 -4.291360000000000174e-01 -3.108409999999999784e-01 1.201691999999999982e+00 4.947960000000000136e-01 3.074219999999999731e-01 -4.973949999999999760e-01 1.282208999999999932e+00 -2.949609999999999732e-01 1.428155000000000063e+00 5.418969999999999620e-01 -3.204216000000000175e+00
-2.370319999999999927e-01 5.389499999999999846e-02 2.628929999999999878e-01 8.441300000000000192e-02 -5.405000000000000082e-03 -1.748649999999999927e-01 4.314899999999999985e-02 8.840699999999999947e-02 1.254389999999999949e-01 2.275599999999999845e-02 -2.029140000000000110e-01 -4.619639999999999858e-01 2.893850000000000033e-01 4.294250000000000012e-01 3.299710000000000143e-01 -6.463900000000000201e-02 -2.971480000000000232e-01 9.099300000000000443e-02 -5.460120000000000529e-01 3.671599999999999864e-02 1.899460000000000037e-01 -4.334319999999999840e-01 -7.545999999999999756e-03 7.979899999999999494e-02 2.982969999999999788e-01 5.921260000000000412e-01 2.153859999999999941e-01 3.500289999999999790e-01 1.883170000000000122e-01 -3.433950000000000058e-01 2.619099999999999762e-01 5.267700000000000160e-02 3.007989999999999831e-01 9.384199999999999486e-02 4.529500000000000193e-02 -1.224719999999999975e-01 1.787110000000000087e-01 3.067900000000000141e-02 -6.181099999999999789e-02 -1.348000000000000023e-03 2.029299999999999993e-01 9.834900000000000586e-02 2.812959999999999905e-01 -2.430660000000000043e-01 2.005560000000000120e-01 -8.167299999999999560e-02 4.686900000000000094e-02 -3.763999999999999985e-03 1.889500000000000068e-01 1.302409999999999957e-01 -4.374179999999999735e-01 2.384439999999999893e-01 8.970699999999999508e-02 3.686659999999999937e-01 2.841499999999999929e-02 -5.968719999999999581e-01 3.396899999999999920e-02 -8.623799999999999522e-02 -5.924650000000000194e-01 2.444500000000000145e-02 -1.460099999999999940e-02 -2.389390000000000125e-01 1.822620000000000073e-01 -1.725810000000000122e-01 -2.091679999999999928e-01 2.532570000000000099e-01 -2.237580000000000124e-01 3.680100000000000038e-02 -1.632879999999999887e-01 2.393919999999999937e-01 1.788690000000000002e-01 -2.032470000000000110e-01 5.191379999999999884e-01 -5.986999999999999961e-02 -3.164690000000000003e-01 -2.181999999999999912e-02 1.899349999999999927e-01 3.195230000000000015e-01 4.147300000000000292e-02 3.253000000000000336e-02 -3.927430000000000088e-01 -6.852070000000000105e-01 2.321789999999999965e-01 1.584909999999999930e-01 -1.008399999999999991e-01 -1.866430000000000033e-01 2.773199999999999971e-02 4.772000000000000200e-03 3.491890000000000271e-01 -5.348499999999999782e-02 -8.281600000000000072e-02 2.050059999999999938e-01 7.102999999999999592e-02 3.406080000000000219e-01 -2.344100000000000072e-01 -2.717419999999999836e-01 -3.047360000000000069e-01 -2.115940000000000043e-01 7.420999999999999645e-03 -1.649150000000000060e-01 -7.458399999999999752e-02 1.501230000000000064e-01 -2.405180000000000096e-01 1.396000000000000105e-03 8.461399999999999477e-02 -2.619549999999999934e-01 2.641020000000000034e-01 -1.135830000000000034e-01 2.191400000000000015e-01 -3.166700000000000070e-01 -4.554170000000000162e-01
-1.549326999999999899e+00 3.233920000000000128e-01 -1.236555999999999989e+00 -6.443210000000000326e-01 1.923923999999999968e+00 1.142597000000000085e+00 -6.509930000000000438e-01 -1.651408999999999905e+00 1.274745000000000017e+00 2.537999999999999892e-03 3.031197000000000141e+00 1.713723000000000107e+00 -1.179361000000000104e+00 1.326529999999999987e+00 9.254999999999999893e-01 6.814080000000000137e-01 8.319189999999999641e-01 -1.362903999999999893e+00 2.027146999999999810e+00 1.194194999999999895e+00 -4.757370000000000210e-01 -1.144911999999999930e+00 -8.780940000000000412e-01 -8.846699999999999564e-01 6.023380000000000400e-01 -1.103809999999999958e+00 -2.527070000000000149e-01 9.446940000000000337e-01 -1.858762999999999943e+00 8.323909999999999920e-01 -1.644257999999999997e+00 -1.436811000000000060e+00 -2.217200000000000074e-02 -4.053999999999999826e-01 2.235015999999999892e+00 -6.712150000000000061e-01 5.209249999999999714e-01 5.274900000000000144e-01 -4.583749999999999769e-01 4.254999999999999893e-01 -1.333219999999999961e-01 -9.411700000000000621e-02 4.548200000000000159e-02 -4.130753999999999593e+00 8.800149999999999917e-01 1.343555000000000055e+00 3.838059999999999805e-01 -7.636540000000000550e-01 7.998239999999999794e-01 7.466200000000000614e-02 -6.462780000000000191e-01 9.592439999999999856e-01 -1.634660000000000002e-01 -1.883249999999999924e-01 -2.455410000000000093e-01 -6.713919999999999888e-01 5.061280000000000223e-01 1.241229999999999972e-01 -1.263851000000000058e+00 2.168397000000000130e+00 2.397577000000000069e+00 2.277009999999999867e-01 -8.558999999999999941e-01 -2.971223999999999865e+00 -4.960599999999999732e-02 4.142970000000000264e-01 4.057299999999999796e-01 1.323661999999999894e+00 -3.151999999999999854e-03 -1.948194999999999899e+00 1.566378999999999966e+00 -1.787463999999999942e+00 9.311070000000000180e-01 -1.305215999999999932e+00 -6.650289999999999813e-01 -8.398250000000000437e-01 -5.865879999999999983e-01 2.489600000000000146e-02 7.402279999999999971e-01 -8.515570000000000084e-01 8.764870000000000161e-01 1.072953999999999963e+00 -1.699578999999999951e+00 -2.066285000000000149e+00 9.326069999999999638e-01 -1.673275999999999986e+00 -2.015540000000000109e-01 -1.921621999999999941e+00 -1.092200000000000060e+00 2.020470000000000044e-01 1.938026999999999944e+00 2.619034000000000084e+00 -6.835569999999999702e-01 -1.795039999999999969e-01 -6.054159999999999542e-01 4.510600000000000026e-02 8.972980000000000400e-01 9.212190000000000101e-01 -4.334959999999999924e-01 -1.580819999999999892e+00 -7.830070000000000086e-01 7.855360000000000120e-01 5.054189999999999516e-01 -5.911999999999999894e-02 3.551594000000000140e+00 7.899000000000000465e-02 2.235662000000000038e+00 -1.337145999999999946e+00 -1.471411999999999942e+00 1.251451000000000091e+00 -2.531660000000000021e-01
2.499439999999999995e-01 2.250982000000000038e+00 8.339199999999999391e-02 3.014399999999999857e-01 -1.057755000000000001e+00 -3.761829999999999896e-01 -1.131204000000000098e+00 -7.026200000000000501e-02 2.743000000000000212e-03 -1.099547000000000052e+00 2.030917999999999779e+00 -1.322589999999999932e+00 5.270550000000000512e-01 1.504669999999999952e+00 -1.412349999999999994e-01 2.472239999999999993e-01 9.135799999999999477e-01 -8.602180000000000382e-01 -5.128470000000000528e-01 -8.007269999999999666e-01 -1.575695999999999986e+00 -2.329502999999999879e+00 2.193610000000000004e-01 1.411375999999999964e+00 9.026779999999999804e-01 1.379431999999999992e+00 1.590273999999999965e+00 -1.980477000000000043e+00 -3.984460000000000224e-01 1.290057999999999927e+00 -4.407369999999999899e-01 -1.904563000000000006e+00 5.311199999999999949e-02 -8.971090000000000453e-01 -8.215299999999999825e-01 1.470720000000000027e+00 6.838729999999999531e-01 1.530807000000000029e+00 1.117137000000000047e+00 6.275950000000000140e-01 -1.178379999999999983e-01 1.694736000000000020e+00 1.320640000000000036e+00 2.370600000000000138e-02 1.180900999999999978e+00 9.606289999999999552e-01 -1.166740000000000110e+00 1.533549999999999913e-01 1.248542000000000041e+00 2.003251000000000115e+00 1.792404000000000108e+00 7.376699999999999924e-02 -1.423510000000000053e+00 6.447929999999999495e-01 -1.318410000000000137e-01 3.836450000000000138e-01 6.101339999999999542e-01 1.131718999999999919e+00 8.346689999999999943e-01 3.174400000000000138e-02 -1.006264999999999965e+00 4.876650000000000151e-01 -6.896799999999999597e-01 1.569790000000000074e-01 2.267730000000000024e-01 1.281546999999999992e+00 2.277109999999999967e-01 -8.498790000000000511e-01 -2.068290000000000128e-01 -3.814890000000000225e-01 7.285589999999999566e-01 -1.112090000000000023e+00 -7.634039999999999715e-01 1.586915000000000076e+00 -5.811370000000000147e-01 -1.028594000000000008e+00 3.066579999999999862e-01 4.441792000000000407e+00 -3.302468000000000181e+00 -2.084496000000000127e+00 -8.351039999999999575e-01 -4.096989999999999799e-01 -1.119282000000000110e+00 -1.165041999999999911e+00 1.682962000000000069e+00 -9.419629999999999947e-01 -5.866719999999999713e-01 2.312707000000000068e+00 -9.933600000000000207e-01 -2.228420999999999985e+00 6.436699999999999366e-02 -2.298226000000000102e+00 -3.344539999999999735e-01 -7.274190000000000378e-01 -1.639760000000000106e+00 -1.790097999999999967e+00 1.066227999999999954e+00 1.300767999999999924e+00 -7.447899999999999521e-01 2.845317000000000096e+00 2.350319999999999909e-01 1.566470000000000085e-01 -4.815679999999999961e-01 -3.837769999999999793e-01 -9.228399999999999936e-01 5.920109999999999539e-01 -5.752019999999999911e-01 -8.723349999999999715e-01 -5.992159999999999709e-01 6.999229999999999619e-01 -2.661452999999999847e+00
-1.496637999999999913e+00 -1.253920000000000035e-01 -1.034327999999999914e+00 -4.234459999999999891e-01 -2.424621999999999833e+00 7.182370000000000143e-01 -1.867699999999999916e-01 -3.824259999999999882e-01 1.146803000000000017e+00 -6.927600000000000424e-01 6.884120000000000239e-01 7.538179999999999881e-01 -9.107700000000000518e-02 -8.257179999999999520e-01 -1.535573999999999995e+00 -1.491699999999999970e-02 -4.148937000000000097e+00 1.814030000000000031e+00 -1.255308000000000090e+00 1.932844000000000007e+00 -3.927229999999999888e-01 1.391920000000000046e+00 5.419190000000000396e-01 -5.895070000000000032e-01 8.949129999999999585e-01 -2.305981000000000058e+00 6.940100000000000435e-02 4.952239999999999975e-01 1.716645999999999894e+00 -8.367649999999999810e-01 5.708820000000000006e-01 -1.189060999999999924e+00 4.930999999999999966e-02 1.081518999999999897e+00 3.619660000000000100e-01 -1.654919999999999947e+00 -1.199157999999999946e+00 -9.195200000000000595e-02 -3.038480000000000070e-01 -2.538313000000000041e+00 -8.747669999999999613e-01 3.219110000000000027e-01 -4.756540000000000212e-01 9.811090000000000089e-01 -1.039120999999999961e+00 -2.508334000000000064e+00 -3.694049999999999834e-01 -3.132510000000000017e-01 2.487318000000000140e+00 2.357822000000000084e+00 1.271451000000000109e+00 -2.445739000000000107e+00 1.192418999999999896e+00 -4.844450000000000145e-01 -7.421480000000000299e-01 4.131540000000000212e-01 -4.398900000000000032e-01 -1.020393000000000105e+00 -3.144500000000000073e-02 1.339800000000000102e+00 -2.780659999999999799e-01 1.739527999999999963e+00 -2.664090000000000069e-01 2.093555999999999973e+00 -1.767406000000000033e+00 -1.085336999999999996e+00 4.482799999999999979e-02 1.303231000000000028e+00 2.201750000000000096e-01 6.598500000000000476e-01 3.734426000000000023e+00 -8.914079999999999782e-01 -1.583644999999999969e+00 -1.081341000000000108e+00 -5.711359999999999770e-01 -2.491790000000000116e-01 7.152610000000000356e-01 2.507404000000000188e+00 -7.864419999999999744e-01 2.512700999999999851e+00 -9.556689999999999907e-01 1.665583999999999953e+00 -6.794529999999999736e-01 -9.313780000000000392e-01 5.115809999999999524e-01 -3.597739999999999827e-01 -1.109499999999999931e-01 1.021549999999999958e+00 -6.396870000000000056e-01 8.074869999999999548e-01 2.670675999999999828e+00 -6.213600000000000234e-01 -7.755399999999999794e-02 8.950360000000000538e-01 -7.190929999999999822e-01 8.839129999999999487e-01 -5.826289999999999525e-01 1.057865999999999973e+00 9.787449999999999761e-01 1.582060999999999940e+00 -1.935600000000000168e-02 1.720599999999999907e-01 2.057390000000000052e-01 -1.148379999999999956e+00 -2.688180000000000014e-01 8.754910000000000192e-01 -8.996680000000000232e-01 9.332999999999999283e-03 -5.771110000000000406e-01 -5.440770000000000328e-01 7.191520000000000135e-01
-2.957049999999999956e-01 5.048899999999999499e-01 -2.124099999999999946e-02 3.138020000000000254e-01 -1.997049999999999936e-01 4.405310000000000059e-01 2.463760000000000117e-01 -1.525009999999999977e-01 -1.261400000000000021e-02 4.731199999999999989e-02 4.020499999999999768e-02 3.001900000000000054e-02 -1.142040000000000000e-01 -5.921300000000000174e-02 1.936559999999999948e-01 -2.655919999999999948e-01 -9.407400000000000484e-02 3.233829999999999760e-01 2.671270000000000033e-01 2.704559999999999742e-01 3.145169999999999910e-01 -4.002410000000000134e-01 1.480710000000000082e-01 1.425599999999999958e-02 4.316909999999999914e-01 3.952890000000000015e-01 -6.739319999999999755e-01 1.320659999999999890e-01 -1.988900000000000112e-01 -1.939199999999999952e-02 -1.124409999999999993e-01 -2.469139999999999946e-01 2.382140000000000091e-01 -3.900460000000000038e-01 -2.063270000000000104e-01 5.575590000000000268e-01 -1.275239999999999985e-01 -1.148499999999999938e-01 1.519030000000000102e-01 -1.651870000000000005e-01 -3.070010000000000239e-01 1.073910000000000003e-01 -1.311140000000000083e-01 -1.651479999999999893e-01 2.640549999999999842e-01 5.959100000000000508e-01 -5.226169999999999982e-01 2.084709999999999896e-01 1.198700000000000043e-01 9.329400000000000193e-02 -1.346009999999999984e-01 4.471220000000000194e-01 2.068049999999999888e-01 -1.703649999999999887e-01 2.659619999999999762e-01 -2.033790000000000042e-01 4.833199999999999996e-02 2.105370000000000019e-01 -3.917299999999999949e-02 -3.986060000000000159e-01 8.576999999999999555e-03 -1.392269999999999897e-01 -2.239770000000000094e-01 -7.894700000000000328e-02 -3.060200000000000073e-02 -2.144260000000000055e-01 8.432699999999999918e-02 3.188170000000000170e-01 -3.766619999999999968e-01 1.604029999999999900e-01 -1.832449999999999912e-01 -1.273150000000000115e-01 -3.528680000000000150e-01 1.639089999999999991e-01 7.728620000000000489e-01 -1.035910000000000025e-01 2.541050000000000253e-01 -3.629999999999999980e-03 -2.548030000000000017e-01 -2.500970000000000137e-01 -2.745290000000000230e-01 2.007859999999999923e-01 4.521410000000000151e-01 2.619989999999999819e-01 -4.144909999999999983e-01 -6.813199999999999812e-02 1.460839999999999916e-01 -2.191089999999999982e-01 -8.930799999999999850e-02 -3.285480000000000067e-01 5.965499999999999969e-02 -9.792999999999999622e-03 -2.900360000000000160e-01 1.298400000000000075e-02 4.150769999999999738e-01 2.909300000000000080e-02 5.028400000000000231e-02 1.388880000000000114e-01 -1.094689999999999969e-01 2.809800000000000145e-02 -1.398089999999999888e-01 -2.579810000000000159e-01 -3.636299999999999949e-02 1.185350000000000015e-01 -8.028599999999999626e-02 -2.856920000000000015e-01 2.584219999999999851e-01 -1.637790000000000079e-01 6.503000000000000447e-02 -3.588990000000000236e-01 -2.209349999999999925e-01