8.578594108000000773e+00 0.000000000000000000e+00 0.000000000000000000e+00 4.259854403000000289e+00 7.595499025999999709e+00 0.000000000000000000e+00 4.247684070000000034e+00 2.468974529000000029e+00 7.194993707000000072e+00
8.675381075000000664e+00 0.000000000000000000e+00 0.000000000000000000e+00 4.224120584999999650e+00 7.662592013000000257e+00 0.000000000000000000e+00 4.407763236000000084e+00 2.432113950000000191e+00 7.087978704000000185e+00
8.807876518000000488e+00 0.000000000000000000e+00 0.000000000000000000e+00 4.469335930999999817e+00 7.814360579999999779e+00 0.000000000000000000e+00 4.360305982999999941e+00 2.643970778999999993e+00 7.321915449999999659e+00
8.613359793000000764e+00 0.000000000000000000e+00 0.000000000000000000e+00 4.221436401000000060e+00 7.585642325000000241e+00 0.000000000000000000e+00 4.379719163999999942e+00 2.492064527000000140e+00 7.069882176000000129e+00
8.821479751000000036e+00 0.000000000000000000e+00 0.000000000000000000e+00 4.394645062000000379e+00 7.652835095000000365e+00 0.000000000000000000e+00 4.419853727999999649e+00 2.312909014999999791e+00 7.229127119000000157e+00
8.567503563000000710e+00 0.000000000000000000e+00 0.000000000000000000e+00 4.135778728000000015e+00 7.729010244999999557e+00 0.000000000000000000e+00 4.148019199000000157e+00 2.536761081999999945e+00 7.086394098999999613e+00
8.829416996999999157e+00 0.000000000000000000e+00 0.000000000000000000e+00 4.484751142000000357e+00 7.651391077999999624e+00 0.000000000000000000e+00 4.292278196999999906e+00 2.842050979000000144e+00 7.133709124000000124e+00
8.782546875999999614e+00 0.000000000000000000e+00 0.000000000000000000e+00 4.345566477000000205e+00 7.708130571999999958e+00 0.000000000000000000e+00 4.385228874000000054e+00 2.637568239999999786e+00 7.223112254000000121e+00
8.700012726000000640e+00 0.000000000000000000e+00 0.000000000000000000e+00 4.410730097000000072e+00 7.631116932000000297e+00 0.000000000000000000e+00 4.360689205999999984e+00 2.432160749999999982e+00 7.148263491999999886e+00
8.682300723000000886e+00 0.000000000000000000e+00 0.000000000000000000e+00 4.339985839999999762e+00 7.852079633999999864e+00 0.000000000000000000e+00 4.396982107999999556e+00 2.529240876999999887e+00 7.189875450999999806e+00
8.594618887999999401e+00 0.000000000000000000e+00 0.000000000000000000e+00 4.277196649000000406e+00 7.587117851000000357e+00 0.000000000000000000e+00 4.318957276999999984e+00 2.506292574000000162e+00 7.209532599000000097e+00
8.638813545999999732e+00 0.000000000000000000e+00 0.000000000000000000e+00 4.422017673000000038e+00 7.748310143000000316e+00 0.000000000000000000e+00 4.228489565000000283e+00 2.493236516000000069e+00 7.004527385000000272e+00
8.577746745000000672e+00 0.000000000000000000e+00 0.000000000000000000e+00 4.355034406999999774e+00 7.544498790999999649e+00 0.000000000000000000e+00 4.305375290999999827e+00 2.399535016999999826e+00 7.047471550000000029e+00
8.587646603999999684e+00 0.000000000000000000e+00 0.000000000000000000e+00 4.300194697000000232e+00 7.564861589999999580e+00 0.000000000000000000e+00 4.247608109999999826e+00 2.433447834999999948e+00 6.962623146000000318e+00
8.634989191000000730e+00 0.000000000000000000e+00 0.000000000000000000e+00 4.356678192999999588e+00 7.481003624999999602e+00 0.000000000000000000e+00 4.254670595000000333e+00 2.451181877999999870e+00 7.045825080000000185e+00
8.584273076000000557e+00 0.000000000000000000e+00 0.000000000000000000e+00 4.311636129000000039e+00 7.676615768999999645e+00 0.000000000000000000e+00 4.377446038000000428e+00 2.484189692000000171e+00 7.096034193000000379e+00
8.575621784999999164e+00 0.000000000000000000e+00 0.000000000000000000e+00 4.340126642999999618e+00 7.612313469000000055e+00 0.000000000000000000e+00 4.321524906999999693e+00 2.438623098999999961e+00 7.077470818000000108e+00
8.603421016000000421e+00 0.000000000000000000e+00 0.000000000000000000e+00 4.287209239000000061e+00 7.823667626999999847e+00 0.000000000000000000e+00 4.321097990000000166e+00 2.950746351999999906e+00 7.013541932999999950e+00
8.806444856000000598e+00 0.000000000000000000e+00 0.000000000000000000e+00 4.432849977000000052e+00 7.572809745999999897e+00 0.000000000000000000e+00 4.402676390999999967e+00 2.351016893000000163e+00 7.027530707000000376e+00
8.603362108000000674e+00 0.000000000000000000e+00 0.000000000000000000e+00 4.322778038000000045e+00 7.544394861999999868e+00 0.000000000000000000e+00 4.398760624000000341e+00 2.377334621000000148e+00 6.976894382000000228e+00
8.595265901999999514e+00 0.000000000000000000e+00 0.000000000000000000e+00 4.249318420999999901e+00 7.618183328999999837e+00 0.000000000000000000e+00 4.232059553000000029e+00 2.468045330999999898e+00 7.031847803999999869e+00
8.777760833000000318e+00 0.000000000000000000e+00 0.000000000000000000e+00 4.362537287000000319e+00 7.515928161999999801e+00 0.000000000000000000e+00 4.429188283000000226e+00 2.328690250000000184e+00 7.114600270000000393e+00
8.696633710000000406e+00 0.000000000000000000e+00 0.000000000000000000e+00 4.313618091000000376e+00 7.567669766999999936e+00 0.000000000000000000e+00 4.307945923000000121e+00 2.408534112999999977e+00 7.086775102999999909e+00
8.546054506999999134e+00 0.000000000000000000e+00 0.000000000000000000e+00 4.254962227000000041e+00 7.547858482999999730e+00 0.000000000000000000e+00 4.280948988999999649e+00 2.521175610999999872e+00 7.025139950999999883e+00
8.584877874000000020e+00 0.000000000000000000e+00 0.000000000000000000e+00 4.273462563999999908e+00 7.650789225999999665e+00 0.000000000000000000e+00 4.313236833000000381e+00 2.526133767000000141e+00 6.996554026000000093e+00
8.705242730000000151e+00 0.000000000000000000e+00 0.000000000000000000e+00 4.341391849999999941e+00 7.742697970000000041e+00 0.000000000000000000e+00 4.286697430000000253e+00 2.434775076000000205e+00 7.141957654999999683e+00
8.691666564000000150e+00 0.000000000000000000e+00 0.000000000000000000e+00 4.327708802000000077e+00 7.677420159999999605e+00 0.000000000000000000e+00 4.350002024000000134e+00 2.428397009000000217e+00 7.145803848999999985e+00
8.694799286000000293e+00 0.000000000000000000e+00 0.000000000000000000e+00 4.349965243999999842e+00 7.798904076000000352e+00 0.000000000000000000e+00 4.276112387999999598e+00 2.500090265999999950e+00 7.137360901000000091e+00
8.777231348000000821e+00 0.000000000000000000e+00 0.000000000000000000e+00 4.323068675000000027e+00 7.692701243000000133e+00 0.000000000000000000e+00 4.485581659000000165e+00 2.613191663999999914e+00 7.174581862000000143e+00
8.552537255000000727e+00 0.000000000000000000e+00 0.000000000000000000e+00 4.316914260999999975e+00 7.630690805999999604e+00 0.000000000000000000e+00 4.169199468999999603e+00 2.572657529000000221e+00 7.046016168000000413e+00
8.661523452999999151e+00 0.000000000000000000e+00 0.000000000000000000e+00 4.280294493000000422e+00 7.598903399000000114e+00 0.000000000000000000e+00 4.341063462000000150e+00 2.379311126000000165e+00 7.017679651999999990e+00
8.508982290000000503e+00 0.000000000000000000e+00 0.000000000000000000e+00 4.234979532999999741e+00 7.468076626000000218e+00 0.000000000000000000e+00 4.280253893000000254e+00 2.559510096999999984e+00 7.024983226999999886e+00
8.690246974000000790e+00 0.000000000000000000e+00 0.000000000000000000e+00 4.311978649000000274e+00 7.551492584000000008e+00 0.000000000000000000e+00 4.316237468999999827e+00 2.514557989000000049e+00 7.048855658999999996e+00
8.565531210999999701e+00 0.000000000000000000e+00 0.000000000000000000e+00 4.253840931000000047e+00 7.868586795999999772e+00 0.000000000000000000e+00 4.292545195999999841e+00 2.878360765000000043e+00 7.051275633999999570e+00
8.724708486999999124e+00 0.000000000000000000e+00 0.000000000000000000e+00 4.296584712999999667e+00 7.518986415999999728e+00 0.000000000000000000e+00 4.339598239999999940e+00 2.356300678999999842e+00 7.070020204000000419e+00
8.717870367999999814e+00 0.000000000000000000e+00 0.000000000000000000e+00 4.248859495999999680e+00 7.747346437000000030e+00 0.000000000000000000e+00 4.377427810000000363e+00 2.538517332000000071e+00 7.136277212000000425e+00
8.750885455000000590e+00 0.000000000000000000e+00 0.000000000000000000e+00 4.309909701999999676e+00 7.661980794999999844e+00 0.000000000000000000e+00 4.447238961000000046e+00 2.554708565999999959e+00 7.186396406000000070e+00
8.841648289000000105e+00 0.000000000000000000e+00 0.000000000000000000e+00 4.394398934999999895e+00 7.773715154999999655e+00 0.000000000000000000e+00 4.489476125000000373e+00 2.606234801999999906e+00 7.266656908999999942e+00
8.706978662999999230e+00 0.000000000000000000e+00 0.000000000000000000e+00 4.340714047999999714e+00 7.631687332000000268e+00 0.000000000000000000e+00 4.327799875000000185e+00 2.540430001999999909e+00 7.078075736999999812e+00
8.601482547999999895e+00 0.000000000000000000e+00 0.000000000000000000e+00 4.248630289000000282e+00 7.454845192999999703e+00 0.000000000000000000e+00 4.349847966999999649e+00 2.470412403000000090e+00 7.030649622000000321e+00
8.695958458999999863e+00 0.000000000000000000e+00 0.000000000000000000e+00 4.361503504999999947e+00 7.777855028000000281e+00 0.000000000000000000e+00 4.360304848000000177e+00 2.662182140000000086e+00 7.190748162000000221e+00
8.285924125999999390e+00 0.000000000000000000e+00 0.000000000000000000e+00 4.159142376000000141e+00 7.379436112999999686e+00 0.000000000000000000e+00 4.284767607000000034e+00 2.430947181000000068e+00 6.930914812000000147e+00
8.772445597999999123e+00 0.000000000000000000e+00 0.000000000000000000e+00 4.405138778999999616e+00 7.502430393000000031e+00 0.000000000000000000e+00 4.352854737999999557e+00 2.564789478999999872e+00 7.106579348000000351e+00
8.572880907000000050e+00 0.000000000000000000e+00 0.000000000000000000e+00 4.362120900999999940e+00 7.670544074000000379e+00 0.000000000000000000e+00 4.272558852000000407e+00 2.442481642000000175e+00 7.101969232000000076e+00
8.622126347000000024e+00 0.000000000000000000e+00 0.000000000000000000e+00 4.419330282999999859e+00 7.397698547000000069e+00 0.000000000000000000e+00 4.404422733999999728e+00 2.347349910999999789e+00 7.009859120999999860e+00
8.593836934000000483e+00 0.000000000000000000e+00 0.000000000000000000e+00 4.384671562000000300e+00 7.549309429000000016e+00 0.000000000000000000e+00 4.293980786999999744e+00 2.530021706999999953e+00 7.101290774999999833e+00
8.686906356999999801e+00 0.000000000000000000e+00 0.000000000000000000e+00 4.309762721000000241e+00 7.599240447999999759e+00 0.000000000000000000e+00 4.301154481000000196e+00 2.558347632999999899e+00 7.038035473999999958e+00
8.513889561999999245e+00 0.000000000000000000e+00 0.000000000000000000e+00 4.160469241999999568e+00 7.824393861999999977e+00 0.000000000000000000e+00 4.266741313999999896e+00 2.578404224999999883e+00 7.126464734999999884e+00
8.649786624000000756e+00 0.000000000000000000e+00 0.000000000000000000e+00 4.376698406000000041e+00 7.619002159999999968e+00 0.000000000000000000e+00 4.306892355999999644e+00 2.465156050000000043e+00 7.078020748000000140e+00
8.655510767000000882e+00 0.000000000000000000e+00 0.000000000000000000e+00 4.408278101999999699e+00 7.722498664999999818e+00 0.000000000000000000e+00 4.321184761999999679e+00 2.382023553999999876e+00 7.096381140000000087e+00
