1.264311999999999969e+01 7.558849999999999625e+00 2.443700000000000039e-01 9.992950000000000443e+00 8.518099999999999561e-01 2.390480000000000160e+00 1.143782000000000032e+01 1.740960000000000063e+00 4.886499999999999844e+00 9.810610000000000497e+00 2.775290000000000035e+00 1.271299999999999930e-01 2.919200000000000017e+00 3.309210000000000207e+00 2.283640000000000114e+00 4.346309999999999896e+00 4.327320000000000277e+00 4.574810000000000265e+00 1.567881999999999998e+01 7.676929999999999588e+00 7.087489999999999846e+00 4.283089999999999620e+00 5.900859999999999772e+00 2.330750000000000099e+00 5.965760000000000396e+00 6.754439999999999777e+00 4.718449999999999811e+00 7.172170000000000378e+00 7.438290000000000290e+00 1.591500000000000137e-01 4.143110000000000070e+00 9.463000000000000300e-01 2.540789999999999882e+00 9.916570000000000107e+00 9.116289999999999338e+00 4.795279999999999987e+00 8.454950000000000188e+00 5.008060000000000400e+00 7.053289999999999615e+00 5.580269999999999619e+00 3.315360000000000085e+00 2.286570000000000213e+00 7.272960000000000313e+00 4.240300000000000402e+00 4.580470000000000041e+00 9.910230000000000317e+00 7.568970000000000198e+00 7.077659999999999840e+00 7.139129999999999754e+00 5.901919999999999611e+00 2.243860000000000188e+00 8.586499999999999133e+00 6.729689999999999728e+00 4.740070000000000228e+00 5.595049999999999635e+00 1.264899999999999913e-01 1.044000000000000067e-01 7.125779999999999781e+00 8.923799999999999510e-01 2.450889999999999791e+00 1.280771999999999977e+01 9.151980000000000004e+00 4.830580000000000318e+00 1.131107000000000085e+01 5.010510000000000019e+00 7.188790000000000013e+00 8.611829999999999430e+00 3.362400000000000055e+00 2.466819999999999791e+00 1.007841999999999949e+01 4.276970000000000383e+00 4.768860000000000099e+00 8.464219999999999189e+00 5.020780000000000243e+00 3.966999999999999693e-02 1.004072000000000031e+01 5.789789999999999992e+00 2.467369999999999841e+00 1.136392000000000024e+01 6.655170000000000030e+00 4.801449999999999996e+00 2.809359999999999857e+00 1.778510000000000035e+00 1.150849999999999929e+00 4.229919999999999902e+00 2.505749999999999922e+00 3.687679999999999847e+00 5.619259999999999700e+00 2.414540000000000131e+00 6.438670000000000115e+00 4.309309999999999974e+00 4.230859999999999843e+00 1.267560000000000020e+00 5.632439999999999891e+00 5.182220000000000049e+00 3.456659999999999844e+00 7.208779999999999966e+00 6.083210000000000228e+00 6.048969999999999736e+00 5.649180000000000312e+00 6.750189999999999912e+00 1.390249999999999986e+00 7.136190000000000033e+00 7.559370000000000367e+00 3.537659999999999805e+00 8.482649999999999579e+00 8.288769999999999527e+00 5.863559999999999661e+00 5.590440000000000076e+00 1.733379999999999921e+00 1.095429999999999904e+00 7.107700000000000351e+00 2.525840000000000085e+00 3.446909999999999918e+00 8.505079999999999529e+00 3.284320000000000128e+00 5.786920000000000286e+00 7.046459999999999724e+00 4.228780000000000427e+00 1.214830000000000076e+00 8.616770000000000707e+00 5.080709999999999837e+00 3.476999999999999869e+00 9.900750000000000384e+00 5.732520000000000060e+00 5.881980000000000430e+00 8.619120000000000559e+00 6.785619999999999763e+00 1.261959999999999971e+00 1.002712000000000003e+01 7.513729999999999798e+00 3.558040000000000092e+00 1.143281999999999954e+01 8.149330000000000851e+00 5.991430000000000256e+00 8.488210000000000477e+00 1.758520000000000083e+00 1.241130000000000067e+00 1.014001999999999981e+01 2.683450000000000113e+00 3.516340000000000021e+00 1.139921999999999969e+01 3.307980000000000143e+00 6.134299999999999642e+00 9.986200000000000188e+00 4.205320000000000391e+00 1.064049999999999940e+00 1.147572000000000081e+01 5.048409999999999620e+00 3.724670000000000147e+00 1.265342000000000056e+01 5.879620000000000068e+00 6.139129999999999754e+00 1.133502000000000010e+01 6.879929999999999879e+00 1.233780000000000099e+00 1.285281999999999947e+01 7.660770000000000302e+00 3.533199999999999896e+00 1.430052000000000056e+01 8.438349999999999795e+00 5.942660000000000053e+00 5.819899999999999629e+00 4.274799999999999933e+00 5.585749999999999993e+00
1.279568000000000083e+01 7.513200000000000323e+00 1.336199999999999888e-01 1.448399999999999910e+00 8.281800000000000272e-01 2.289120000000000044e+00 3.024570000000000203e+00 1.713119999999999976e+00 4.675089999999999968e+00 9.978310000000000457e+00 2.738570000000000171e+00 1.331700000000000106e-01 2.902019999999999822e+00 3.400710000000000122e+00 2.254700000000000149e+00 1.296348000000000056e+01 4.495059999999999611e+00 4.673210000000000086e+00 2.816850000000000076e+00 5.099070000000000213e+00 2.380000000000000171e-03 1.293078000000000038e+01 5.928960000000000008e+00 2.396269999999999900e+00 5.902420000000000222e+00 6.870949999999999669e+00 4.720080000000000275e+00 2.972249999999999837e+00 6.622999999999999721e-02 8.223999999999999366e-02 4.415130000000000443e+00 8.781299999999999661e-01 2.354119999999999990e+00 1.026308000000000042e+01 9.014799999999999258e+00 4.592710000000000292e+00 4.283750000000000391e+00 2.660550000000000193e+00 1.169000000000000039e-01 5.763010000000000410e+00 3.505259999999999820e+00 2.403290000000000148e+00 7.240899999999999892e+00 4.399759999999999671e+00 4.657569999999999766e+00 1.013138000000000005e+01 7.543960000000000221e+00 6.975270000000000081e+00 7.201139999999999652e+00 5.851779999999999760e+00 2.299830000000000041e+00 8.572089999999999321e+00 6.772660000000000124e+00 4.697840000000000238e+00 1.001357999999999926e+01 7.571530000000000094e+00 6.732000000000000484e-02 7.277490000000000236e+00 8.188400000000000123e-01 2.373520000000000074e+00 8.746579999999999799e+00 1.656330000000000080e+00 4.696460000000000079e+00 1.160908000000000051e+01 5.030050000000000132e+00 7.041439999999999699e+00 8.701299999999999812e+00 3.400879999999999903e+00 2.388910000000000089e+00 1.018838000000000044e+01 4.088619999999999699e+00 4.776290000000000369e+00 1.296418000000000070e+01 7.606370000000000076e+00 7.004679999999999573e+00 1.010838000000000036e+01 5.779090000000000060e+00 2.458359999999999879e+00 1.150178000000000011e+01 6.682280000000000442e+00 4.692700000000000315e+00 2.781979999999999897e+00 1.761670000000000069e+00 1.051630000000000065e+00 4.419529999999999959e+00 2.465500000000000025e+00 3.374070000000000125e+00 5.819490000000000052e+00 2.255510000000000126e+00 6.201360000000000205e+00 4.325140000000000207e+00 4.332180000000000142e+00 1.277060000000000084e+00 5.779320000000000235e+00 5.140979999999999883e+00 3.565700000000000092e+00 7.211809999999999832e+00 6.102079999999999949e+00 5.993859999999999744e+00 5.776580000000000048e+00 6.782709999999999795e+00 1.407829999999999915e+00 7.360249999999999737e+00 7.701900000000000190e+00 3.469450000000000145e+00 8.502860000000000085e+00 8.373440000000000438e+00 5.862429999999999808e+00 5.735210000000000363e+00 1.739069999999999894e+00 1.196550000000000002e+00 7.171330000000000204e+00 2.525380000000000180e+00 3.460030000000000161e+00 8.642020000000000479e+00 3.346830000000000194e+00 5.836000000000000298e+00 7.124509999999999899e+00 4.226880000000000415e+00 1.096209999999999907e+00 8.659129999999999328e+00 5.097819999999999574e+00 3.426800000000000068e+00 9.962389999999999191e+00 5.724059999999999704e+00 5.866159999999999819e+00 8.648220000000000240e+00 6.842369999999999841e+00 1.066529999999999978e+00 1.009558000000000000e+01 7.526600000000000179e+00 3.395770000000000177e+00 1.166417999999999999e+01 8.215020000000000877e+00 5.738430000000000142e+00 8.668570000000000775e+00 1.757609999999999895e+00 1.281050000000000022e+00 1.004298000000000002e+01 2.560519999999999907e+00 3.488589999999999858e+00 1.174197999999999986e+01 3.262980000000000214e+00 5.927979999999999805e+00 1.014677999999999969e+01 4.196489999999999831e+00 1.332470000000000043e+00 1.162307999999999986e+01 5.061810000000000365e+00 3.522120000000000140e+00 1.277448000000000050e+01 5.915650000000000297e+00 5.947930000000000383e+00 1.159187999999999974e+01 6.825849999999999973e+00 1.224739999999999940e+00 1.288108000000000075e+01 7.741660000000000430e+00 3.525399999999999867e+00 1.443618000000000023e+01 8.618169999999999220e+00 5.878490000000000215e+00 5.676339999999999719e+00 4.240750000000000242e+00 5.625000000000000000e+00
1.321983999999999959e+01 7.749880000000000102e+00 4.306000000000000105e-02 1.020434000000000019e+01 9.973499999999999588e-01 2.501459999999999795e+00 1.167754000000000048e+01 1.784499999999999975e+00 4.831140000000000434e+00 1.466384000000000043e+01 5.466750000000000220e+00 7.232210000000000250e+00 1.176814000000000071e+01 3.648480000000000167e+00 2.482969999999999899e+00 1.320724000000000053e+01 4.531380000000000408e+00 4.746389999999999887e+00 1.182973999999999926e+01 5.307999999999999829e+00 3.368999999999999773e-02 1.330760000000000076e+01 6.219159999999999577e+00 2.456150000000000055e+00 1.476524999999999999e+01 7.176929999999999588e+00 4.877360000000000362e+00 7.355220000000000091e+00 7.892079999999999984e+00 4.357800000000000007e-01 4.328000000000000291e+00 9.078100000000000058e-01 2.407350000000000101e+00 1.019008999999999965e+01 9.241559999999999775e+00 4.852039999999999687e+00 8.833959999999999368e+00 5.277960000000000207e+00 7.296940000000000204e+00 5.913149999999999906e+00 3.495109999999999939e+00 2.438839999999999897e+00 7.428960000000000008e+00 4.609270000000000422e+00 4.693310000000000315e+00 1.030813999999999986e+01 7.807280000000000442e+00 7.233889999999999709e+00 7.331360000000000099e+00 6.060599999999999987e+00 2.401619999999999866e+00 8.885960000000000747e+00 7.027260000000000062e+00 4.870940000000000047e+00 5.843329999999999913e+00 9.786000000000000254e-02 3.599999999999999901e-03 7.425609999999999822e+00 9.392599999999999838e-01 2.493320000000000203e+00 1.306683999999999912e+01 9.535310000000000841e+00 4.975270000000000081e+00 1.171474000000000082e+01 5.317660000000000053e+00 7.254669999999999952e+00 8.885960000000000747e+00 3.496620000000000061e+00 2.428380000000000205e+00 1.030934000000000061e+01 4.406460000000000043e+00 4.993570000000000064e+00 8.881479999999999819e+00 5.178079999999999572e+00 1.569999999999999868e-02 1.024014000000000024e+01 6.271399999999999864e+00 2.403690000000000104e+00 1.194853999999999949e+01 6.880390000000000228e+00 4.834909999999999819e+00 2.873159999999999936e+00 1.837150000000000061e+00 1.159049999999999914e+00 4.283070000000000377e+00 2.634129999999999860e+00 3.758700000000000152e+00 5.931530000000000413e+00 2.413580000000000059e+00 6.458750000000000213e+00 4.364869999999999806e+00 4.455169999999999852e+00 1.248269999999999991e+00 6.085790000000000255e+00 5.278970000000000162e+00 3.576439999999999841e+00 7.408900000000000041e+00 6.173300000000000232e+00 6.060660000000000380e+00 5.928709999999999702e+00 7.036430000000000184e+00 1.455279999999999907e+00 7.299619999999999997e+00 7.903769999999999740e+00 3.547079999999999789e+00 8.629929999999999879e+00 8.584319999999999951e+00 5.900089999999999613e+00 5.599969999999999892e+00 1.720040000000000013e+00 1.208620000000000028e+00 7.332259999999999778e+00 2.688930000000000042e+00 3.498499999999999943e+00 8.871439999999999770e+00 3.485329999999999817e+00 5.955350000000000144e+00 7.265760000000000218e+00 4.292370000000000019e+00 1.248180000000000067e+00 9.046150000000000801e+00 5.329150000000000276e+00 3.524379999999999846e+00 1.019120999999999988e+01 6.032849999999999824e+00 6.075529999999999653e+00 8.700020000000000309e+00 6.844159999999999577e+00 1.214139999999999997e+00 1.034163999999999994e+01 7.937380000000000102e+00 3.553980000000000139e+00 1.174924000000000035e+01 8.338760000000000616e+00 5.992189999999999905e+00 8.736629999999999896e+00 1.890630000000000033e+00 1.086209999999999898e+00 1.018232000000000070e+01 2.592699999999999783e+00 3.725190000000000001e+00 1.187124000000000024e+01 3.584830000000000183e+00 6.101189999999999891e+00 1.043764000000000003e+01 4.474000000000000199e+00 1.269549999999999956e+00 1.184914000000000023e+01 5.282770000000000188e+00 3.690170000000000172e+00 1.318654000000000082e+01 6.186320000000000263e+00 6.121559999999999668e+00 1.182224000000000075e+01 7.131700000000000372e+00 1.326820000000000110e+00 1.328603999999999985e+01 7.875790000000000290e+00 3.658319999999999794e+00 1.463353999999999999e+01 8.794040000000000745e+00 6.189210000000000100e+00 5.949519999999999698e+00 4.337340000000000195e+00 5.719590000000000174e+00
1.285717999999999961e+01 7.563109999999999999e+00 1.351100000000000079e-01 1.522920000000000051e+00 9.250899999999999679e-01 2.252499999999999947e+00 7.302349999999999675e+00 9.173149999999999693e+00 4.852549999999999919e+00 9.965310000000000556e+00 2.730869999999999909e+00 2.417000000000000051e-02 2.982819999999999805e+00 3.388809999999999878e+00 2.278880000000000017e+00 1.288128000000000029e+01 4.340419999999999945e+00 4.382399999999999629e+00 7.257909999999999862e+00 7.489899999999999558e+00 7.047439999999999927e+00 1.284197999999999951e+01 6.018489999999999895e+00 2.437310000000000088e+00 1.437177999999999933e+01 6.914979999999999905e+00 4.758399999999999963e+00 7.245239999999999903e+00 7.361930000000000085e+00 1.688699999999999923e-01 8.579190000000000538e+00 8.399259999999999948e+00 2.418820000000000192e+00 1.001135999999999981e+01 9.059229999999999450e+00 4.822829999999999728e+00 8.784029999999999561e+00 4.902440000000000353e+00 6.911539999999999573e+00 5.766530000000000378e+00 3.415480000000000071e+00 2.352110000000000145e+00 7.137859999999999872e+00 4.389100000000000001e+00 4.580330000000000013e+00 5.592190000000000438e+00 5.089190000000000325e+00 1.109600000000000031e-01 7.091510000000000424e+00 5.958050000000000068e+00 2.485749999999999904e+00 8.641870000000000829e+00 6.636689999999999756e+00 4.763679999999999914e+00 1.447048000000000023e+01 1.001254999999999917e+01 7.008060000000000400e+00 7.120199999999999640e+00 1.002979999999999983e+00 2.359059999999999935e+00 8.608439999999999870e+00 1.670970000000000066e+00 4.720629999999999882e+00 1.137247999999999948e+01 5.067309999999999981e+00 6.966260000000000119e+00 8.589529999999999887e+00 3.397359999999999935e+00 2.233140000000000125e+00 1.007285000000000075e+01 4.183769999999999989e+00 4.566790000000000127e+00 1.295598000000000027e+01 7.485470000000000290e+00 6.956850000000000200e+00 9.890739999999999199e+00 5.777140000000000164e+00 2.340559999999999974e+00 1.151908000000000065e+01 6.755209999999999937e+00 4.737659999999999982e+00 2.881489999999999885e+00 1.670029999999999903e+00 1.024029999999999996e+00 4.368290000000000006e+00 2.621119999999999894e+00 3.363329999999999931e+00 5.909270000000000245e+00 2.383140000000000036e+00 6.341370000000000395e+00 4.360199999999999854e+00 4.232129999999999725e+00 1.189359999999999973e+00 5.668029999999999902e+00 5.030479999999999841e+00 3.415880000000000027e+00 7.366670000000000051e+00 5.882240000000000357e+00 6.093539999999999957e+00 5.802669999999999995e+00 6.691670000000000229e+00 1.458530000000000104e+00 7.152470000000000105e+00 7.554660000000000153e+00 3.659170000000000034e+00 8.488730000000000331e+00 8.241030000000000300e+00 5.936449999999999783e+00 5.801890000000000214e+00 1.575239999999999974e+00 1.127000000000000002e+00 7.084439999999999849e+00 2.611600000000000144e+00 3.534149999999999903e+00 8.713240000000000762e+00 3.334670000000000023e+00 5.929820000000000313e+00 7.179669999999999774e+00 4.136829999999999785e+00 1.196660000000000057e+00 8.560990000000000322e+00 5.093309999999999782e+00 3.488640000000000185e+00 9.990080000000000737e+00 5.865529999999999688e+00 5.841409999999999769e+00 8.674120000000000275e+00 6.839190000000000325e+00 1.211009999999999920e+00 9.946999999999999176e+00 7.669450000000000323e+00 3.521720000000000184e+00 1.162808000000000064e+01 8.287760000000000460e+00 5.749159999999999826e+00 8.591730000000000089e+00 1.856989999999999919e+00 9.601100000000000190e-01 1.003763999999999967e+01 2.597140000000000004e+00 3.487620000000000164e+00 1.149408000000000030e+01 3.350330000000000030e+00 5.737440000000000317e+00 1.007676000000000016e+01 4.271099999999999675e+00 1.277320000000000011e+00 1.145317999999999969e+01 5.167410000000000281e+00 3.451340000000000074e+00 1.281927999999999912e+01 6.130160000000000053e+00 5.784399999999999764e+00 1.140708000000000055e+01 6.747720000000000162e+00 1.212339999999999973e+00 1.275277999999999956e+01 7.737339999999999662e+00 3.415859999999999896e+00 1.433427999999999969e+01 8.400330000000000297e+00 5.869510000000000005e+00 5.509409999999999918e+00 4.309759999999999813e+00 5.640220000000000233e+00
1.307015999999999956e+01 7.490969999999999906e+00 1.711799999999999988e-01 1.024324000000000012e+01 8.723100000000000298e-01 2.380069999999999908e+00 3.029529999999999834e+00 1.595979999999999954e+00 4.779010000000000424e+00 1.465025999999999939e+01 5.172049999999999592e+00 7.161240000000000272e+00 2.952980000000000160e+00 3.192680000000000184e+00 2.388990000000000169e+00 4.460479999999999556e+00 4.274130000000000429e+00 4.444420000000000037e+00 2.958839999999999915e+00 5.131579999999999586e+00 1.498999999999999985e-02 4.491979999999999862e+00 5.801929999999999588e+00 2.405069999999999819e+00 5.956179999999999808e+00 6.747069999999999901e+00 4.574939999999999785e+00 7.401410000000000267e+00 2.315109999999999779e+00 7.143889999999999851e+00 4.317739999999999689e+00 8.388600000000000501e-01 2.257410000000000139e+00 5.782689999999999664e+00 1.463759999999999950e+00 4.542639999999999567e+00 4.358850000000000335e+00 2.649880000000000013e+00 3.116999999999999979e-02 5.902319999999999567e+00 3.369240000000000013e+00 2.329079999999999817e+00 7.216370000000000395e+00 4.275179999999999758e+00 4.641000000000000014e+00 6.038009999999999877e+00 5.239519999999999733e+00 1.400000000000000029e-02 7.369670000000000165e+00 5.737320000000000420e+00 2.337680000000000202e+00 8.916309999999999292e+00 6.657630000000000159e+00 4.862800000000000011e+00 1.023310999999999993e+01 7.625609999999999999e+00 2.766000000000000056e-02 7.212310000000000443e+00 7.740899999999999448e-01 2.371570000000000178e+00 8.818809999999999150e+00 1.552300000000000013e+00 4.663140000000000285e+00 1.163920000000000066e+01 4.949099999999999611e+00 7.052290000000000170e+00 8.955249999999999488e+00 3.448209999999999997e+00 2.416059999999999874e+00 1.018122999999999934e+01 4.141359999999999708e+00 4.812870000000000203e+00 1.335726000000000013e+01 7.531329999999999636e+00 7.156290000000000262e+00 1.038565999999999967e+01 5.868249999999999744e+00 2.379360000000000142e+00 1.171875999999999962e+01 6.835770000000000124e+00 4.780619999999999870e+00 2.952360000000000095e+00 1.581329999999999902e+00 1.349420000000000064e+00 4.440159999999999663e+00 2.457040000000000113e+00 3.627590000000000092e+00 5.824220000000000397e+00 2.300199999999999800e+00 6.375779999999999781e+00 4.273390000000000022e+00 4.266989999999999839e+00 1.334130000000000038e+00 5.815240000000000187e+00 5.191250000000000142e+00 3.302140000000000075e+00 7.556219999999999715e+00 5.822000000000000064e+00 6.268349999999999866e+00 5.942510000000000403e+00 6.742950000000000443e+00 1.332829999999999959e+00 7.470919999999999561e+00 7.635640000000000427e+00 3.438379999999999992e+00 8.685760000000000147e+00 8.201079999999999259e+00 6.083070000000000199e+00 5.903719999999999857e+00 1.672279999999999989e+00 1.184909999999999908e+00 7.175110000000000099e+00 2.519219999999999793e+00 3.452030000000000154e+00 8.882740000000000080e+00 3.245150000000000201e+00 6.124380000000000379e+00 7.375650000000000261e+00 4.323599999999999888e+00 1.093299999999999939e+00 8.807280000000000442e+00 4.900879999999999903e+00 3.528080000000000105e+00 1.026755999999999958e+01 5.948170000000000179e+00 6.094310000000000116e+00 8.858190000000000452e+00 6.711289999999999978e+00 1.092200000000000060e+00 1.029756000000000071e+01 7.409790000000000099e+00 3.510749999999999815e+00 1.200825999999999993e+01 8.318110000000000781e+00 6.025339999999999918e+00 9.021530000000000271e+00 1.624260000000000037e+00 1.148249999999999993e+00 1.015956000000000081e+01 2.468869999999999898e+00 3.609379999999999811e+00 1.183636000000000088e+01 3.139400000000000190e+00 6.199629999999999974e+00 1.032726000000000077e+01 4.167089999999999961e+00 1.299209999999999976e+00 1.164606000000000030e+01 4.842629999999999768e+00 3.753420000000000201e+00 1.299105999999999916e+01 5.874850000000000350e+00 6.172570000000000334e+00 1.168735999999999997e+01 6.771370000000000111e+00 1.363380000000000036e+00 1.314855999999999980e+01 7.562750000000000306e+00 3.660530000000000062e+00 1.483625999999999934e+01 8.260049999999999670e+00 5.963129999999999598e+00 5.804059999999999775e+00 4.243000000000000327e+00 5.622080000000000410e+00
1.268354000000000070e+01 7.588759999999999728e+00 1.501000000000000112e-01 1.457060000000000022e+00 8.984600000000000364e-01 2.322880000000000056e+00 2.838280000000000136e+00 1.689759999999999929e+00 4.706500000000000128e+00 1.000375999999999976e+01 2.708169999999999966e+00 1.787700000000000122e-01 2.834159999999999791e+00 3.474239999999999995e+00 2.330849999999999866e+00 1.250705999999999918e+01 4.509719999999999729e+00 4.564460000000000406e+00 2.873099999999999987e+00 5.206550000000000011e+00 2.866000000000000145e-02 4.145859999999999879e+00 5.965600000000000236e+00 2.310160000000000213e+00 1.404565999999999981e+01 7.062999999999999723e+00 4.730349999999999611e+00 7.142389999999999795e+00 7.653319999999999901e+00 2.386199999999999988e-01 8.395009999999999195e+00 8.488630000000000564e+00 2.379150000000000098e+00 9.749420000000000641e+00 9.336209999999999454e+00 4.554009999999999891e+00 4.194329999999999892e+00 2.642980000000000107e+00 8.892999999999999516e-02 5.720790000000000042e+00 3.273429999999999840e+00 2.196590000000000042e+00 6.988879999999999981e+00 4.358760000000000190e+00 4.698640000000000150e+00 5.566399999999999793e+00 5.191939999999999777e+00 2.060000000000000199e-03 7.012249999999999872e+00 5.968329999999999913e+00 2.440360000000000085e+00 8.396990000000000620e+00 6.834270000000000067e+00 4.781080000000000219e+00 5.652919999999999945e+00 7.574999999999999789e-02 8.340999999999999803e-02 1.129940000000000033e+01 8.545749999999999957e+00 2.290109999999999868e+00 1.259445000000000014e+01 9.399749999999999162e+00 4.756899999999999906e+00 7.168940000000000090e+00 2.505139999999999922e+00 3.599999999999999901e-03 8.511850000000000804e+00 3.480739999999999945e+00 2.348809999999999842e+00 9.765829999999999345e+00 4.240409999999999791e+00 4.787469999999999892e+00 1.258375999999999983e+01 7.624520000000000408e+00 7.030549999999999855e+00 9.766379999999999839e+00 5.958719999999999573e+00 2.345200000000000173e+00 1.107436000000000043e+01 6.914220000000000255e+00 4.668520000000000003e+00 2.931259999999999977e+00 1.704169999999999963e+00 1.164139999999999953e+00 4.339900000000000091e+00 2.456440000000000179e+00 3.452160000000000117e+00 5.646740000000000315e+00 2.480760000000000076e+00 6.120190000000000019e+00 4.311180000000000234e+00 4.379760000000000097e+00 1.066340000000000066e+00 5.533419999999999561e+00 5.234600000000000364e+00 3.408150000000000013e+00 7.044069999999999609e+00 6.120059999999999611e+00 6.045049999999999812e+00 5.553020000000000067e+00 6.853320000000000078e+00 1.437659999999999938e+00 6.986659999999999648e+00 7.820039999999999658e+00 3.499629999999999797e+00 8.144199999999999662e+00 8.536189999999999500e+00 5.805170000000000385e+00 5.696839999999999904e+00 1.826349999999999918e+00 1.046850000000000058e+00 7.015920000000000378e+00 2.513320000000000221e+00 3.538460000000000161e+00 8.248989999999999156e+00 3.423900000000000166e+00 5.986309999999999576e+00 7.181490000000000151e+00 4.229280000000000150e+00 1.243940000000000046e+00 8.280279999999999418e+00 5.253459999999999575e+00 3.769890000000000185e+00 9.741460000000000008e+00 5.935340000000000060e+00 5.900680000000000369e+00 8.499560000000000670e+00 6.875300000000000189e+00 1.274559999999999915e+00 9.950659999999999172e+00 7.683119999999999727e+00 3.443090000000000206e+00 1.129745999999999917e+01 8.416059999999999874e+00 6.018340000000000245e+00 8.576449999999999463e+00 1.752499999999999947e+00 1.059109999999999996e+00 9.902559999999999363e+00 2.615779999999999994e+00 3.462660000000000071e+00 1.125196000000000041e+01 3.428350000000000009e+00 5.839330000000000354e+00 9.936959999999999127e+00 4.333999999999999631e+00 1.216150000000000064e+00 1.123115999999999914e+01 5.098410000000000331e+00 3.300370000000000026e+00 1.247236000000000011e+01 6.245910000000000295e+00 5.752480000000000260e+00 1.130366000000000071e+01 6.867280000000000051e+00 1.062780000000000058e+00 1.264195999999999920e+01 7.769250000000000433e+00 3.470860000000000056e+00 1.388345999999999947e+01 8.702909999999999258e+00 5.836719999999999686e+00 5.403789999999999871e+00 4.467190000000000438e+00 5.661710000000000242e+00
1.308154000000000039e+01 7.589360000000000106e+00 1.750099999999999989e-01 6.018399999999999750e+00 8.340329999999999799e+00 2.444519999999999804e+00 1.597331999999999930e+01 9.367919999999999803e+00 4.854309999999999903e+00 1.034262000000000015e+01 2.619489999999999874e+00 3.188599999999999768e-01 1.162351999999999919e+01 3.375729999999999897e+00 2.495899999999999785e+00 1.298015999999999970e+01 4.365969999999999906e+00 4.634970000000000034e+00 1.183677999999999919e+01 5.054700000000000415e+00 1.625199999999999978e-01 4.583269999999999733e+00 6.038920000000000066e+00 2.417339999999999822e+00 5.790070000000000050e+00 6.820159999999999556e+00 4.863640000000000185e+00 1.164306999999999981e+01 1.033604000000000056e+01 7.067940000000000111e+00 8.856550000000000367e+00 8.523270000000000124e+00 2.424599999999999866e+00 1.041061999999999976e+01 9.414690000000000225e+00 4.690889999999999560e+00 4.505709999999999660e+00 2.593550000000000022e+00 2.996000000000000052e-02 5.739309999999999690e+00 3.364339999999999886e+00 2.250719999999999832e+00 7.389210000000000278e+00 4.424150000000000027e+00 4.495149999999999757e+00 5.907029999999999781e+00 4.939239999999999853e+00 9.704999999999999738e-02 7.533450000000000202e+00 6.101589999999999847e+00 2.135190000000000143e+00 8.886139999999999262e+00 7.096199999999999619e+00 4.704830000000000290e+00 1.014198999999999984e+01 2.967470000000000052e+00 7.120470000000000077e+00 1.175032000000000032e+01 8.536659999999999471e+00 2.485030000000000072e+00 8.787539999999999907e+00 2.048589999999999911e+00 4.867320000000000313e+00 1.171662000000000070e+01 5.433069999999999844e+00 7.105380000000000251e+00 8.667329999999999757e+00 3.230599999999999916e+00 2.259739999999999860e+00 1.015781999999999918e+01 4.589380000000000237e+00 5.000799999999999912e+00 1.326741999999999955e+01 8.104660000000000863e+00 7.084319999999999951e+00 1.038432000000000066e+01 5.917460000000000164e+00 2.216330000000000133e+00 1.176642000000000010e+01 7.073669999999999902e+00 4.843350000000000044e+00 2.872959999999999958e+00 1.577409999999999979e+00 1.220259999999999900e+00 4.350850000000000328e+00 2.786490000000000133e+00 3.419000000000000039e+00 5.548499999999999766e+00 2.986450000000000049e+00 6.054870000000000196e+00 4.492939999999999934e+00 4.325949999999999740e+00 1.189769999999999994e+00 5.901469999999999771e+00 5.009800000000000253e+00 3.173340000000000050e+00 7.527350000000000207e+00 6.537950000000000372e+00 6.051580000000000403e+00 5.957709999999999617e+00 6.882209999999999717e+00 1.267470000000000097e+00 7.339480000000000004e+00 7.882469999999999644e+00 3.672829999999999817e+00 8.876189999999999358e+00 8.771349999999999980e+00 6.117099999999999760e+00 5.814099999999999824e+00 1.696530000000000094e+00 1.155569999999999986e+00 7.313250000000000028e+00 2.772260000000000169e+00 3.582190000000000207e+00 8.941499999999999559e+00 3.784349999999999881e+00 5.914080000000000226e+00 7.474389999999999645e+00 4.319370000000000154e+00 1.166819999999999968e+00 8.858140000000000569e+00 5.417250000000000121e+00 3.473009999999999931e+00 1.021512000000000064e+01 6.294640000000000235e+00 5.923840000000000217e+00 8.836000000000000298e+00 6.838849999999999874e+00 9.780499999999999750e-01 1.022761999999999993e+01 7.911270000000000024e+00 3.672449999999999992e+00 1.184712000000000032e+01 8.843690000000000495e+00 5.939379999999999882e+00 8.820589999999999264e+00 1.741759999999999975e+00 1.022070000000000034e+00 1.032671999999999990e+01 2.570419999999999927e+00 3.597160000000000135e+00 1.160092000000000034e+01 3.641890000000000072e+00 5.753829999999999778e+00 1.046692000000000000e+01 4.217200000000000060e+00 1.324230000000000018e+00 1.172171999999999947e+01 5.252889999999999837e+00 3.742560000000000109e+00 1.308531999999999940e+01 6.447919999999999874e+00 6.121310000000000251e+00 1.155931999999999960e+01 7.019879999999999676e+00 1.142889999999999961e+00 1.326722000000000001e+01 7.783310000000000173e+00 3.290680000000000049e+00 1.463331999999999944e+01 8.760880000000000223e+00 5.858399999999999608e+00 5.759380000000000166e+00 4.948170000000000179e+00 5.547850000000000392e+00