-4.229794447699999864e+02
-4.231911835399999973e+02
-4.220121798000000126e+02
-4.215660225299999979e+02
-4.203216272199999821e+02
-4.229810230400000250e+02
-4.180961841199999753e+02
-4.215742865099999790e+02
-4.226516512599999942e+02
-4.231326103399999852e+02
-4.273155926800000088e+02
-4.183103249499999947e+02
-4.238938824599999862e+02
-4.241633165399999825e+02
-4.235756584800000155e+02
-4.247960196000000224e+02
-4.247677367300000242e+02
-4.183850633199999720e+02
-4.216008938300000182e+02
-4.223417721600000050e+02
-4.229644033399999898e+02
-4.183985265900000172e+02
-4.186578870899999743e+02
-4.273806396400000267e+02
-4.246656137200000103e+02
-4.209434165499999949e+02
-4.244912065500000153e+02
-4.215846262499999852e+02
-4.209373250699999858e+02
-4.199935492700000168e+02
-4.183320246800000177e+02
-4.241513667300000066e+02
-4.230710435099999813e+02
-4.195427846200000204e+02
-4.233312709499999755e+02
-4.204713600499999870e+02
-4.251015529499999843e+02
-4.230971682800000053e+02
-4.232159077200000183e+02
-4.246253137400000242e+02
-4.215113363400000139e+02
-4.243646545799999785e+02
-4.215743291900000145e+02
-4.229669917599999849e+02
-4.240871055800000136e+02
-4.234915200799999866e+02
-4.234860374400000183e+02
-4.198392162900000244e+02
-4.240490370300000222e+02
-4.223825872300000128e+02
