1.614800000000000013e+00 8.912799999999999612e-01 3.040950000000000042e+00 1.588549999999999907e+00 7.956600000000000339e-01 7.115350000000000286e+00 6.424229999999999663e+00 3.642430000000000057e+00 3.034040000000000070e+00 6.391499999999999737e+00 3.590720000000000134e+00 7.141799999999999926e+00 4.691910000000000025e+00 6.556219999999999715e+00 3.057459999999999845e+00 4.722520000000000273e+00 6.417600000000000193e+00 7.099689999999999834e+00 4.857560000000000322e+00 8.215500000000000025e-01 3.049650000000000194e+00 4.844500000000000028e+00 8.043700000000000294e-01 7.103950000000000209e+00 3.105760000000000076e+00 3.618119999999999781e+00 3.043010000000000215e+00 3.100670000000000037e+00 3.566110000000000113e+00 7.121170000000000222e+00 1.512289999999999912e+00 6.450239999999999974e+00 3.047449999999999992e+00 1.489249999999999963e+00 6.382139999999999702e+00 7.112020000000000231e+00 6.432240000000000180e+00 1.834070000000000089e+00 1.006559999999999899e+00 6.406819999999999737e+00 1.795809999999999906e+00 5.097599999999999909e+00 4.742429999999999701e+00 4.657099999999999795e+00 9.281300000000000106e-01 4.731690000000000396e+00 4.583999999999999631e+00 5.149239999999999817e+00 3.089739999999999931e+00 7.447149999999999714e+00 1.011269999999999891e+00 3.063829999999999831e+00 7.360070000000000334e+00 5.092730000000000423e+00 3.228559999999999874e+00 1.822990000000000110e+00 1.040829999999999922e+00 3.205299999999999816e+00 1.756850000000000023e+00 5.061099999999999710e+00 1.535290000000000044e+00 4.618800000000000239e+00 1.023930000000000007e+00 1.538189999999999946e+00 4.557970000000000077e+00 5.069259999999999877e+00 6.350730000000000430e+00 7.416059999999999874e+00 9.978599999999999692e-01 6.339819999999999567e+00 7.360739999999999839e+00 5.082699999999999996e+00 1.595730000000000093e+00 9.451300000000000257e-01 1.051719999999999988e+00 1.590740000000000043e+00 8.582300000000000484e-01 5.082390000000000185e+00 6.337780000000000413e+00 3.743149999999999977e+00 1.115380000000000038e+00 6.327040000000000219e+00 3.687669999999999781e+00 4.946030000000000371e+00 4.705449999999999910e+00 6.432699999999999640e+00 1.164209999999999967e+00 4.710530000000000328e+00 6.374119999999999564e+00 4.992560000000000109e+00 4.845200000000000173e+00 9.057500000000000551e-01 1.019039999999999946e+00 4.836969999999999992e+00 8.337700000000000111e-01 5.072180000000000355e+00 3.208979999999999944e+00 3.722150000000000070e+00 1.137999999999999901e+00 3.190620000000000012e+00 3.669020000000000170e+00 4.946390000000000065e+00 1.493849999999999900e+00 6.457589999999999719e+00 1.015660000000000007e+00 1.506569999999999965e+00 6.400710000000000122e+00 5.064860000000000362e+00 6.437909999999999577e+00 1.836829999999999963e+00 3.043489999999999807e+00 6.439259999999999984e+00 1.784680000000000044e+00 7.100959999999999717e+00 4.733410000000000117e+00 4.530470000000000219e+00 7.106460000000000221e+00 3.100169999999999870e+00 7.402490000000000236e+00 3.046019999999999950e+00 3.103239999999999998e+00 7.309149999999999814e+00 7.122160000000000046e+00 3.236619999999999830e+00 1.827239999999999975e+00 3.037339999999999929e+00 3.206630000000000091e+00 1.765889999999999960e+00 7.107619999999999827e+00 1.537500000000000089e+00 4.588840000000000252e+00 3.048779999999999824e+00 1.511919999999999931e+00 4.507049999999999557e+00 7.123389999999999667e+00 6.310599999999999987e+00 7.355109999999999815e+00 3.051909999999999901e+00 6.314919999999999867e+00 7.302810000000000024e+00 7.134689999999999976e+00
1.627129999999999965e+00 9.692899999999999849e-01 3.159580000000000055e+00 1.659839999999999982e+00 1.082810000000000050e+00 7.369570000000000398e+00 1.753200000000000036e-01 3.700130000000000141e+00 3.157859999999999889e+00 7.852000000000000646e-02 3.865650000000000031e+00 7.374310000000000365e+00 -1.510469999999999979e+00 6.675580000000000069e+00 3.161369999999999791e+00 -1.490529999999999911e+00 6.596709999999999852e+00 7.372550000000000381e+00 4.879299999999999748e+00 1.011460000000000026e+00 3.155100000000000016e+00 4.897890000000000299e+00 1.092549999999999910e+00 7.372670000000000279e+00 3.179310000000000080e+00 3.689449999999999896e+00 3.158020000000000049e+00 3.318369999999999820e+00 3.868230000000000057e+00 7.373070000000000235e+00 1.716059999999999919e+00 6.543110000000000426e+00 3.159199999999999786e+00 1.732909999999999950e+00 6.620820000000000149e+00 7.375399999999999956e+00 2.940999999999999864e-02 1.872239999999999904e+00 1.035290000000000044e+00 4.859999999999999737e-02 1.964609999999999967e+00 5.279160000000000075e+00 -1.550839999999999996e+00 4.621979999999999755e+00 1.021949999999999914e+00 -1.528200000000000003e+00 4.721040000000000347e+00 5.297659999999999592e+00 -3.119930000000000092e+00 7.386689999999999756e+00 1.036810000000000009e+00 -3.105290000000000106e+00 7.488389999999999880e+00 5.284880000000000244e+00 3.258840000000000181e+00 1.866600000000000037e+00 1.051860000000000017e+00 3.280159999999999965e+00 1.962490000000000068e+00 5.268259999999999721e+00 1.688160000000000105e+00 4.641600000000000392e+00 1.045500000000000096e+00 1.701370000000000049e+00 4.740590000000000082e+00 5.281489999999999796e+00 1.076600000000000057e-01 7.397490000000000343e+00 1.031209999999999960e+00 1.237400000000000028e-01 7.490960000000000285e+00 5.282070000000000043e+00 1.634900000000000020e+00 9.445500000000000007e-01 1.038739999999999997e+00 1.648779999999999912e+00 1.039230000000000098e+00 5.288739999999999775e+00 3.216000000000000109e-02 3.735230000000000050e+00 1.188900000000000068e+00 4.991000000000000297e-02 3.819179999999999797e+00 5.121590000000000309e+00 -1.516780000000000017e+00 6.428359999999999630e+00 1.219530000000000003e+00 -1.502990000000000048e+00 6.524449999999999861e+00 5.097050000000000303e+00 4.861030000000000406e+00 9.409100000000000241e-01 1.041369999999999907e+00 4.883180000000000298e+00 1.043379999999999974e+00 5.278010000000000090e+00 3.301309999999999967e+00 3.733190000000000008e+00 1.192209999999999992e+00 3.331679999999999975e+00 3.819020000000000081e+00 5.127040000000000042e+00 1.707009999999999916e+00 6.479219999999999757e+00 1.022659999999999902e+00 1.724429999999999907e+00 6.572440000000000282e+00 5.292799999999999727e+00 4.649999999999999967e-02 1.908800000000000052e+00 3.161529999999999951e+00 6.318999999999999617e-02 2.037040000000000184e+00 7.376529999999999809e+00 -1.521139999999999937e+00 4.769280000000000186e+00 7.373160000000000380e+00 -3.127079999999999860e+00 7.459459999999999980e+00 3.158399999999999874e+00 -3.068560000000000176e+00 7.530140000000000278e+00 7.377729999999999677e+00 3.257519999999999971e+00 1.884200000000000097e+00 3.157970000000000166e+00 3.294020000000000170e+00 2.029999999999999805e+00 7.374329999999999607e+00 1.697540000000000049e+00 4.722699999999999676e+00 3.160029999999999895e+00 1.713119999999999976e+00 4.762279999999999625e+00 7.371179999999999843e+00 1.255499999999999949e-01 7.468670000000000364e+00 3.158939999999999859e+00 1.166800000000000059e-01 7.535110000000000419e+00 7.373569999999999958e+00
1.532119999999999926e+00 9.489300000000000512e-01 3.112480000000000135e+00 1.725309999999999899e+00 1.008939999999999948e+00 7.314350000000000129e+00 6.595919999999999561e+00 3.646760000000000002e+00 3.157119999999999926e+00 6.558089999999999975e+00 3.805590000000000028e+00 7.061749999999999972e+00 5.025979999999999670e+00 6.502399999999999736e+00 3.240650000000000031e+00 4.916199999999999903e+00 6.510889999999999844e+00 7.229359999999999786e+00 4.973230000000000040e+00 9.467700000000000005e-01 3.009090000000000042e+00 4.964039999999999786e+00 9.763300000000000312e-01 7.312059999999999782e+00 3.271640000000000104e+00 3.560560000000000169e+00 3.178249999999999797e+00 3.310569999999999791e+00 3.746950000000000003e+00 7.024610000000000021e+00 1.629660000000000108e+00 6.453929999999999723e+00 3.108979999999999855e+00 1.733610000000000095e+00 6.470170000000000421e+00 7.304999999999999716e+00 6.457810000000000272e+00 1.921759999999999913e+00 1.037900000000000045e+00 6.504209999999999603e+00 1.882169999999999899e+00 5.233920000000000350e+00 4.961389999999999745e+00 4.575330000000000119e+00 8.951599999999999557e-01 5.030059999999999754e+00 4.730649999999999800e+00 5.169810000000000016e+00 3.399630000000000152e+00 7.244019999999999904e+00 1.050480000000000080e+00 3.256909999999999972e+00 7.368689999999999962e+00 5.102009999999999934e+00 3.211749999999999883e+00 1.936679999999999957e+00 1.006480000000000041e+00 3.266560000000000130e+00 1.760890000000000066e+00 5.195730000000000182e+00 1.706809999999999938e+00 4.520010000000000083e+00 1.003360000000000030e+00 1.699079999999999924e+00 4.637649999999999828e+00 5.165370000000000239e+00 6.547729999999999606e+00 7.331360000000000099e+00 1.183329999999999993e+00 6.663499999999999979e+00 7.392199999999999882e+00 5.218589999999999840e+00 1.598910000000000053e+00 9.819400000000000350e-01 9.323399999999999466e-01 1.615129999999999955e+00 9.959500000000000020e-01 5.055310000000000414e+00 6.508409999999999584e+00 3.820939999999999781e+00 1.223060000000000036e+00 6.441869999999999763e+00 3.776510000000000034e+00 4.979420000000000179e+00 4.929240000000000066e+00 6.319079999999999586e+00 1.292340000000000044e+00 4.974490000000000300e+00 6.596490000000000187e+00 4.981139999999999901e+00 4.898719999999999963e+00 9.666500000000000092e-01 1.023220000000000018e+00 4.923490000000000144e+00 1.044929999999999914e+00 5.162010000000000431e+00 3.308590000000000142e+00 3.798340000000000050e+00 1.248010000000000064e+00 3.282399999999999984e+00 3.826280000000000125e+00 5.075529999999999653e+00 1.763749999999999929e+00 6.456660000000000288e+00 1.084359999999999991e+00 1.660190000000000055e+00 6.438159999999999883e+00 5.218029999999999724e+00 6.504080000000000084e+00 1.885650000000000048e+00 3.005389999999999784e+00 6.593440000000000190e+00 1.881720000000000059e+00 7.294649999999999856e+00 4.970519999999999605e+00 4.689079999999999693e+00 7.288450000000000095e+00 3.304250000000000131e+00 7.406109999999999971e+00 3.198189999999999866e+00 3.321070000000000189e+00 7.405490000000000350e+00 7.267660000000000231e+00 3.265140000000000153e+00 1.810340000000000060e+00 3.019309999999999938e+00 3.328650000000000109e+00 1.833979999999999944e+00 7.271410000000000373e+00 1.681359999999999966e+00 4.647610000000000241e+00 3.189859999999999918e+00 1.678770000000000095e+00 4.650890000000000413e+00 7.238410000000000011e+00 6.546890000000000320e+00 7.366200000000000081e+00 3.161830000000000140e+00 6.569880000000000386e+00 7.381359999999999921e+00 7.230209999999999582e+00
1.660279999999999978e+00 1.008620000000000072e+00 3.138949999999999907e+00 1.725670000000000037e+00 1.050359999999999960e+00 7.496830000000000105e+00 6.449699999999999989e+00 3.749730000000000008e+00 3.037440000000000140e+00 6.602430000000000021e+00 3.839329999999999909e+00 7.488080000000000069e+00 4.982409999999999783e+00 6.677139999999999631e+00 3.293289999999999829e+00 4.869250000000000078e+00 6.612059999999999604e+00 7.335060000000000358e+00 4.755460000000000242e+00 1.098540000000000072e+00 3.197690000000000143e+00 4.847509999999999764e+00 1.069970000000000088e+00 7.407199999999999562e+00 3.146440000000000126e+00 3.697700000000000209e+00 3.184660000000000046e+00 3.268909999999999982e+00 3.874890000000000168e+00 7.460790000000000255e+00 1.707680000000000087e+00 6.635600000000000165e+00 3.288229999999999986e+00 1.817979999999999929e+00 6.663030000000000008e+00 7.537139999999999951e+00 6.469330000000000247e+00 1.791239999999999943e+00 9.983400000000000052e-01 6.514929999999999666e+00 1.792519999999999891e+00 5.478080000000000283e+00 4.970769999999999911e+00 4.608799999999999564e+00 9.324400000000000466e-01 5.014540000000000219e+00 4.712600000000000122e+00 5.532589999999999897e+00 3.459849999999999870e+00 7.410309999999999953e+00 1.135790000000000077e+00 3.358280000000000154e+00 7.545539999999999914e+00 5.246290000000000120e+00 3.209659999999999958e+00 1.972760000000000069e+00 1.064449999999999896e+00 3.240250000000000075e+00 1.984099999999999975e+00 5.420950000000000379e+00 1.764999999999999902e+00 4.765259999999999607e+00 1.225859999999999950e+00 1.715300000000000047e+00 4.735829999999999984e+00 5.392360000000000042e+00 6.488819999999999588e+00 7.391969999999999708e+00 1.013940000000000063e+00 6.613190000000000346e+00 7.502209999999999823e+00 5.323489999999999611e+00 1.634190000000000031e+00 9.273700000000000276e-01 9.178600000000000092e-01 1.777279999999999971e+00 9.979400000000000492e-01 5.269840000000000302e+00 6.539799999999999613e+00 3.835560000000000080e+00 1.242709999999999981e+00 6.516429999999999723e+00 3.728099999999999969e+00 4.950730000000000075e+00 4.909690000000000332e+00 6.392420000000000435e+00 1.510599999999999943e+00 4.951789999999999914e+00 6.538710000000000022e+00 5.356469999999999843e+00 4.731119999999999770e+00 9.218100000000000183e-01 1.038219999999999921e+00 4.848819999999999908e+00 1.073560000000000070e+00 5.434300000000000352e+00 3.380129999999999857e+00 3.758980000000000210e+00 1.240769999999999929e+00 3.403399999999999981e+00 3.867630000000000123e+00 5.078310000000000102e+00 1.725419999999999954e+00 6.562280000000000335e+00 1.130060000000000064e+00 1.799670000000000103e+00 6.623789999999999623e+00 5.418350000000000222e+00 6.424610000000000376e+00 1.873220000000000107e+00 2.934000000000000163e+00 6.569849999999999746e+00 1.943950000000000067e+00 7.431090000000000195e+00 4.963110000000000355e+00 4.737359999999999793e+00 7.523979999999999890e+00 3.335039999999999782e+00 7.401950000000000252e+00 3.193979999999999819e+00 3.333149999999999835e+00 7.579679999999999751e+00 7.452919999999999767e+00 3.110170000000000101e+00 1.938800000000000079e+00 3.226710000000000189e+00 3.308040000000000092e+00 2.144620000000000193e+00 7.430069999999999730e+00 1.632419999999999982e+00 4.762599999999999945e+00 3.047699999999999854e+00 1.754350000000000076e+00 4.818220000000000169e+00 7.327329999999999899e+00 6.630919999999999703e+00 7.622250000000000192e+00 3.392549999999999955e+00 6.481110000000000149e+00 7.535650000000000404e+00 7.531430000000000291e+00
1.592440000000000078e+00 9.658299999999999663e-01 3.229519999999999946e+00 1.671620000000000106e+00 1.098680000000000101e+00 7.501459999999999795e+00 6.539799999999999613e+00 3.853120000000000100e+00 3.229280000000000150e+00 6.447919999999999874e+00 4.043870000000000076e+00 7.556239999999999846e+00 4.846020000000000216e+00 6.786179999999999879e+00 3.202890000000000015e+00 4.739559999999999995e+00 6.806470000000000020e+00 7.588160000000000238e+00 4.822899999999999743e+00 1.073960000000000026e+00 3.162009999999999987e+00 4.830070000000000086e+00 1.089499999999999913e+00 7.498639999999999972e+00 3.134630000000000027e+00 3.757179999999999964e+00 3.231669999999999821e+00 3.176600000000000090e+00 3.883550000000000058e+00 7.599750000000000227e+00 1.585169999999999968e+00 6.740730000000000111e+00 3.283279999999999976e+00 1.572429999999999994e+00 6.705910000000000259e+00 7.663929999999999687e+00 6.395889999999999631e+00 1.947789999999999910e+00 1.109890000000000043e+00 6.403340000000000032e+00 1.948159999999999892e+00 5.342019999999999769e+00 4.896569999999999645e+00 4.688519999999999577e+00 9.440499999999999448e-01 4.761820000000000164e+00 4.883189999999999920e+00 5.579670000000000130e+00 3.249600000000000044e+00 7.517229999999999634e+00 1.081469999999999931e+00 3.152299999999999880e+00 7.684840000000000337e+00 5.464669999999999916e+00 3.216429999999999900e+00 1.863380000000000036e+00 1.076349999999999918e+00 3.258729999999999905e+00 2.024880000000000013e+00 5.497700000000000031e+00 1.674909999999999899e+00 4.737099999999999866e+00 1.095650000000000013e+00 1.530219999999999914e+00 4.862169999999999881e+00 5.291100000000000136e+00 6.389140000000000263e+00 7.464830000000000076e+00 1.075499999999999901e+00 6.363439999999999763e+00 7.652470000000000105e+00 5.366500000000000270e+00 1.579620000000000024e+00 8.889399999999999524e-01 1.054950000000000054e+00 1.617990000000000039e+00 1.104049999999999976e+00 5.474630000000000329e+00 6.432000000000000384e+00 3.884970000000000034e+00 1.281360000000000054e+00 6.338669999999999582e+00 4.055699999999999861e+00 5.153450000000000308e+00 4.785949999999999704e+00 6.451670000000000016e+00 1.331919999999999993e+00 4.722070000000000434e+00 6.616119999999999557e+00 5.123780000000000001e+00 4.749170000000000336e+00 9.063099999999999490e-01 9.441199999999999593e-01 4.800029999999999575e+00 1.015810000000000102e+00 5.437619999999999898e+00 3.196930000000000049e+00 3.768740000000000201e+00 1.263810000000000100e+00 3.274729999999999919e+00 3.906379999999999963e+00 5.134529999999999816e+00 1.567749999999999977e+00 6.618350000000000399e+00 9.375499999999999945e-01 1.499619999999999953e+00 6.732409999999999783e+00 5.428829999999999600e+00 6.423259999999999970e+00 1.986990000000000034e+00 3.245159999999999823e+00 6.425639999999999574e+00 2.123250000000000082e+00 7.459920000000000329e+00 4.778010000000000090e+00 4.932280000000000442e+00 7.547259999999999636e+00 3.166879999999999917e+00 7.624570000000000292e+00 3.226490000000000080e+00 3.230430000000000135e+00 7.674660000000000259e+00 7.582749999999999879e+00 3.238129999999999953e+00 1.918739999999999890e+00 3.075860000000000039e+00 3.300670000000000215e+00 2.083750000000000213e+00 7.483869999999999578e+00 1.752990000000000048e+00 4.866080000000000183e+00 3.195539999999999825e+00 1.578340000000000076e+00 4.830779999999999852e+00 7.522859999999999658e+00 6.466479999999999784e+00 7.744970000000000354e+00 3.192279999999999784e+00 6.403159999999999741e+00 7.645629999999999704e+00 7.627130000000000187e+00
1.560799999999999965e+00 1.060100000000000042e+00 3.027610000000000134e+00 1.656930000000000014e+00 1.031889999999999974e+00 7.269350000000000200e+00 6.532790000000000319e+00 3.742039999999999811e+00 3.169700000000000184e+00 6.516519999999999868e+00 3.777600000000000069e+00 7.011829999999999785e+00 4.897549999999999848e+00 6.588490000000000180e+00 3.036360000000000170e+00 4.997099999999999653e+00 6.533920000000000172e+00 7.299680000000000391e+00 4.857000000000000206e+00 9.327999999999999625e-01 2.978250000000000064e+00 4.907479999999999620e+00 8.643199999999999772e-01 7.227879999999999860e+00 3.256549999999999834e+00 3.717210000000000125e+00 3.013189999999999813e+00 3.217150000000000176e+00 3.736149999999999860e+00 7.208840000000000359e+00 1.793390000000000040e+00 6.590200000000000280e+00 3.021999999999999797e+00 1.795350000000000001e+00 6.555150000000000254e+00 7.175659999999999705e+00 6.443389999999999951e+00 2.044509999999999827e+00 1.045860000000000012e+00 6.437330000000000219e+00 1.853029999999999955e+00 5.182859999999999800e+00 4.805039999999999978e+00 4.611189999999999678e+00 7.696499999999999453e-01 4.925279999999999880e+00 4.680450000000000443e+00 5.221829999999999750e+00 3.373479999999999812e+00 7.467240000000000322e+00 1.025900000000000034e+00 3.344320000000000181e+00 7.545799999999999841e+00 5.109670000000000378e+00 3.272019999999999929e+00 1.841509999999999980e+00 1.006310000000000038e+00 3.322189999999999976e+00 1.916349999999999998e+00 5.100920000000000343e+00 1.617189999999999905e+00 4.643869999999999720e+00 9.798599999999999532e-01 1.758869999999999933e+00 4.747189999999999799e+00 5.064300000000000246e+00 6.558799999999999741e+00 7.335370000000000168e+00 1.077490000000000059e+00 6.574869999999999770e+00 7.425699999999999967e+00 5.193120000000000402e+00 1.625310000000000032e+00 9.640300000000000535e-01 1.074289999999999967e+00 1.687880000000000047e+00 9.802499999999999547e-01 5.208590000000000053e+00 6.303149999999999586e+00 3.797299999999999898e+00 1.268869999999999942e+00 6.475950000000000095e+00 3.831960000000000033e+00 4.991570000000000285e+00 4.945969999999999978e+00 6.383829999999999671e+00 1.151480000000000059e+00 4.891099999999999781e+00 6.453680000000000305e+00 4.928740000000000343e+00 4.880869999999999820e+00 8.527299999999999880e-01 1.111289999999999889e+00 4.870169999999999888e+00 9.322300000000000031e-01 5.248289999999999900e+00 3.243650000000000144e+00 3.710539999999999949e+00 1.038480000000000070e+00 3.343409999999999993e+00 3.801060000000000105e+00 4.835289999999999644e+00 1.773509999999999920e+00 6.482050000000000090e+00 1.006399999999999961e+00 1.835869999999999891e+00 6.570949999999999847e+00 5.149469999999999992e+00 6.448269999999999946e+00 1.854910000000000059e+00 3.192169999999999952e+00 6.501479999999999926e+00 1.947899999999999965e+00 7.267940000000000289e+00 4.848700000000000010e+00 4.675399999999999778e+00 7.073629999999999640e+00 3.293079999999999785e+00 7.595159999999999911e+00 3.026969999999999938e+00 3.469980000000000064e+00 7.441460000000000186e+00 7.235000000000000320e+00 3.263269999999999893e+00 1.858060000000000045e+00 3.064340000000000064e+00 3.370579999999999909e+00 1.858670000000000044e+00 7.290820000000000078e+00 1.710090000000000110e+00 4.663730000000000153e+00 3.034800000000000164e+00 1.680970000000000075e+00 4.664819999999999744e+00 7.031080000000000219e+00 6.629669999999999952e+00 7.475100000000000300e+00 3.060709999999999820e+00 6.612890000000000157e+00 7.402619999999999756e+00 7.301549999999999763e+00
1.514459999999999917e+00 1.016510000000000025e+00 3.144719999999999960e+00 1.553889999999999993e+00 1.108929999999999971e+00 7.368660000000000210e+00 6.656340000000000146e+00 3.751300000000000079e+00 3.263630000000000031e+00 6.673280000000000101e+00 3.925019999999999953e+00 7.252480000000000260e+00 4.897630000000000372e+00 6.806659999999999933e+00 3.206820000000000004e+00 4.961190000000000211e+00 6.842950000000000088e+00 7.086700000000000443e+00 4.927150000000000141e+00 1.095679999999999987e+00 3.324240000000000084e+00 4.853720000000000034e+00 1.102139999999999898e+00 7.311539999999999928e+00 3.193350000000000133e+00 3.889200000000000212e+00 3.134570000000000078e+00 3.247570000000000068e+00 3.851379999999999804e+00 7.416400000000000325e+00 1.560759999999999925e+00 6.732450000000000045e+00 3.016199999999999992e+00 1.602530000000000010e+00 6.872080000000000410e+00 7.402910000000000323e+00 6.468969999999999665e+00 1.966159999999999908e+00 1.074070000000000080e+00 6.552979999999999805e+00 1.774480000000000057e+00 5.260040000000000049e+00 4.854370000000000296e+00 4.719159999999999577e+00 8.394800000000000040e-01 4.987779999999999880e+00 4.800399999999999778e+00 5.384229999999999627e+00 3.269649999999999945e+00 7.727249999999999730e+00 9.942600000000000326e-01 3.139029999999999987e+00 7.759459999999999802e+00 5.360219999999999985e+00 3.149189999999999934e+00 1.793260000000000076e+00 1.087069999999999981e+00 3.178269999999999929e+00 1.826219999999999954e+00 5.254540000000000433e+00 1.549469999999999903e+00 4.657919999999999838e+00 1.070189999999999975e+00 1.743020000000000014e+00 4.898649999999999949e+00 5.243750000000000355e+00 6.560629999999999740e+00 7.609219999999999651e+00 1.064750000000000085e+00 6.702320000000000277e+00 7.627589999999999648e+00 5.208199999999999719e+00 1.495200000000000085e+00 9.972299999999999498e-01 1.118170000000000108e+00 1.615269999999999984e+00 1.025590000000000002e+00 5.346090000000000231e+00 6.453380000000000116e+00 3.793719999999999981e+00 1.204649999999999999e+00 6.462670000000000137e+00 3.878800000000000026e+00 5.119629999999999903e+00 4.973589999999999733e+00 6.576859999999999928e+00 1.316840000000000011e+00 5.044159999999999755e+00 6.647750000000000270e+00 5.089610000000000412e+00 4.939960000000000129e+00 9.420899999999999830e-01 1.015740000000000087e+00 4.921330000000000204e+00 9.457200000000000051e-01 5.312359999999999971e+00 3.433300000000000018e+00 3.795360000000000067e+00 1.176239999999999952e+00 3.289960000000000218e+00 3.874319999999999986e+00 5.053790000000000227e+00 1.624090000000000034e+00 6.727899999999999991e+00 1.073919999999999986e+00 1.715430000000000010e+00 6.624869999999999592e+00 5.500560000000000116e+00 6.557839999999999669e+00 1.898590000000000000e+00 3.326769999999999783e+00 6.560279999999999667e+00 2.075499999999999901e+00 7.306359999999999744e+00 4.834109999999999907e+00 4.891890000000000072e+00 7.371789999999999843e+00 3.295669999999999877e+00 7.672970000000000290e+00 3.220410000000000217e+00 3.382039999999999935e+00 7.767820000000000391e+00 7.452270000000000394e+00 3.225080000000000169e+00 1.931019999999999959e+00 3.173960000000000115e+00 3.283150000000000013e+00 2.003219999999999779e+00 7.381669999999999732e+00 1.627429999999999932e+00 4.954320000000000057e+00 3.102749999999999897e+00 1.641920000000000046e+00 4.926309999999999967e+00 7.442719999999999558e+00 6.573909999999999698e+00 7.668790000000000440e+00 3.198679999999999968e+00 6.505749999999999922e+00 7.790569999999999773e+00 7.256269999999999776e+00
1.568969999999999976e+00 8.385200000000000431e-01 3.164480000000000182e+00 1.606289999999999996e+00 9.116699999999999804e-01 7.347739999999999938e+00 6.350240000000000329e+00 3.697220000000000173e+00 3.211730000000000196e+00 6.190839999999999677e+00 3.704050000000000065e+00 7.310929999999999929e+00 4.791159999999999641e+00 6.639020000000000366e+00 3.181350000000000122e+00 4.646869999999999834e+00 6.552520000000000344e+00 7.159749999999999837e+00 4.859530000000000349e+00 9.697599999999999554e-01 3.170809999999999906e+00 4.835429999999999673e+00 8.349699999999999900e-01 7.396840000000000082e+00 2.813270000000000159e+00 3.717960000000000154e+00 3.258020000000000138e+00 2.913279999999999870e+00 3.731300000000000061e+00 7.311460000000000292e+00 1.423950000000000049e+00 6.650210000000000399e+00 3.142319999999999780e+00 1.506070000000000020e+00 6.606670000000000265e+00 7.425040000000000084e+00 6.523710000000000342e+00 1.824500000000000011e+00 1.131820000000000048e+00 6.421179999999999666e+00 1.924949999999999939e+00 5.265259999999999607e+00 4.615520000000000067e+00 4.635950000000000237e+00 9.244499999999999940e-01 4.633759999999999657e+00 4.554689999999999905e+00 5.410770000000000302e+00 3.206920000000000215e+00 7.507710000000000328e+00 1.020969999999999933e+00 3.086780000000000079e+00 7.511639999999999873e+00 5.230520000000000280e+00 3.223549999999999915e+00 1.886419999999999986e+00 1.059360000000000079e+00 3.165680000000000049e+00 1.853760000000000074e+00 5.210110000000000241e+00 1.409820000000000073e+00 4.706120000000000303e+00 9.767799999999999816e-01 1.326070000000000082e+00 4.827560000000000073e+00 5.342150000000000176e+00 6.291529999999999845e+00 7.551230000000000331e+00 9.333599999999999675e-01 6.374859999999999971e+00 7.628580000000000361e+00 5.346829999999999750e+00 1.646709999999999896e+00 8.897699999999999498e-01 1.156260000000000066e+00 1.596039999999999903e+00 8.752999999999999670e-01 5.186090000000000089e+00 6.290009999999999657e+00 3.721140000000000114e+00 1.226410000000000000e+00 6.146259999999999835e+00 3.847309999999999786e+00 4.994769999999999932e+00 4.837480000000000224e+00 6.457760000000000389e+00 1.278250000000000108e+00 4.760130000000000194e+00 6.421219999999999928e+00 5.043180000000000440e+00 4.916240000000000165e+00 9.887799999999999923e-01 1.036839999999999984e+00 4.771690000000000431e+00 9.729900000000000215e-01 5.302749999999999631e+00 3.044970000000000176e+00 3.726690000000000058e+00 1.000850000000000017e+00 2.928459999999999841e+00 3.818579999999999863e+00 5.088669999999999582e+00 1.480569999999999942e+00 6.646329999999999849e+00 9.214700000000000113e-01 1.409040000000000070e+00 6.650579999999999714e+00 5.357280000000000264e+00 6.454080000000000261e+00 1.872300000000000075e+00 3.211840000000000028e+00 6.386940000000000062e+00 1.839120000000000088e+00 7.260279999999999845e+00 4.653579999999999828e+00 4.648089999999999833e+00 7.293770000000000309e+00 3.098759999999999959e+00 7.417930000000000135e+00 3.229169999999999874e+00 3.051309999999999967e+00 7.480349999999999611e+00 7.351589999999999847e+00 3.238999999999999879e+00 1.944609999999999950e+00 3.225940000000000030e+00 3.100290000000000212e+00 1.891259999999999941e+00 7.303729999999999833e+00 1.385890000000000066e+00 4.847769999999999690e+00 3.004350000000000076e+00 1.357920000000000016e+00 4.625729999999999897e+00 7.378490000000000215e+00 6.349739999999999718e+00 7.620669999999999611e+00 3.160089999999999844e+00 6.248969999999999914e+00 7.482730000000000103e+00 7.438049999999999606e+00