-3.909639923099999805e+02
-3.889630279599999767e+02
-3.891245317699999759e+02
-3.873816502999999898e+02
-3.907764465899999777e+02
-3.893742781600000171e+02
-3.934926535800000238e+02
-3.867039888300000143e+02
-3.906042620000000056e+02
-3.922115726299999778e+02
-3.888876924300000155e+02
-3.889256711599999790e+02
-3.887021384299999909e+02
-3.902769346499999870e+02
-3.894318257599999811e+02
-3.916848541200000113e+02
-3.897575807399999803e+02
-3.896787844099999916e+02
-3.891729010199999834e+02
-3.928241563199999860e+02
-3.912966604999999731e+02
-3.912839501400000017e+02
-3.883123724700000139e+02
-3.917464015200000063e+02
-3.893927819300000124e+02
-3.889296253399999728e+02
-3.924193272399999728e+02
-3.857488133800000014e+02
-3.890449056499999756e+02
-3.936993415900000173e+02
-3.865268868200000156e+02
-3.865795760199999904e+02
-3.935271544999999946e+02
-3.904199118799999724e+02
-3.899716002499999945e+02
-3.935480519000000186e+02
-3.904391393199999811e+02
-3.889820012299999803e+02
-3.881878763099999787e+02
-3.863447039700000119e+02
-3.915386631499999908e+02
-3.935246994799999811e+02
-3.901741516199999751e+02
-3.909226114100000018e+02
-3.933878028899999890e+02
-3.936580980699999941e+02
-3.893776485800000273e+02
-3.899130505399999720e+02
-3.926116705700000011e+02
-3.909849821799999745e+02
