-1.601140000000000063e-01 -7.614400000000000057e-01 -4.855539999999999856e-01 4.578079999999999927e-01 9.268030000000000435e-01 6.433630000000000182e-01 -2.151225999999999861e+00 1.077024999999999899e+00 -4.214129999999999820e-01 -9.604439999999999644e-01 2.280260000000000065e-01 5.394900000000000251e-01 -2.462921999999999834e+00 3.569849000000000050e+00 -2.620759999999999756e-01 1.437364000000000086e+00 -1.390632000000000090e+00 -4.744590000000000196e-01 1.121013999999999955e+00 1.799115000000000020e+00 6.459430000000000449e-01 -1.906477999999999895e+00 -4.618140000000000023e-01 -1.979579999999999951e-01 1.265659000000000090e+00 1.329320000000000057e+00 3.198199999999999932e-01 3.627650000000000041e-01 -7.386239999999999473e-01 -5.667529999999999513e-01 6.300899999999999557e-02 -5.111830000000000540e-01 -9.619830000000000325e-01 1.090548999999999991e+00 1.995700999999999947e+00 3.588189999999999991e-01 1.245965999999999907e+00 6.661899999999999766e-02 1.147454999999999892e+00 4.117790000000000061e-01 -9.230490000000000084e-01 -1.474704999999999933e+00 -2.734260000000000024e-01 7.414870000000000072e-01 1.186568000000000067e+00 5.964070000000000205e-01 1.752540999999999904e+00 -1.061371000000000064e+00 1.873430000000000095e-01 5.542500000000000204e-02 -2.593389999999999862e-01 -3.317499999999999893e-01 -1.577228000000000074e+00 -1.147161000000000097e+00 -1.116478000000000081e+00 -8.271199999999999664e-01 9.884000000000000424e-03 1.316849999999999965e-01 1.154398999999999953e+00 -7.032899999999999707e-01 -7.939690000000000358e-01 1.254224000000000006e+00 1.006545999999999941e+00 4.842239999999999878e-01 -1.364875000000000060e+00 2.305959999999999954e-01 -8.408200000000000396e-02 -7.276709999999999567e-01 7.528449999999999864e-01 1.014479999999999965e-01 -7.337909999999999711e-01 -8.235850000000000115e-01 2.412411000000000083e+00 -4.378605000000000302e+00 1.115323000000000064e+00 4.164269999999999916e-01 1.269131999999999927e+00 -1.071272000000000002e+00 -2.887199999999999767e-01 1.531309000000000031e+00 1.062345000000000095e+00 -3.978960000000000274e-01 -2.423119999999999996e-01 -6.858130000000000059e-01 3.178650000000000087e-01 -5.367629999999999901e-01 6.324539999999999607e-01 8.232969999999999455e-01 2.434070000000000122e-01 -5.848809999999999842e-01 -2.634449999999999847e-01 -7.892139999999999711e-01 5.021010000000000195e-01 3.103770000000000140e-01 -2.127130000000000132e-01 -4.573450000000000015e-01 3.488870000000000027e-01 1.202115000000000045e+00 1.402471999999999941e+00 7.449480000000000546e-01 -6.709249999999999936e-01 -8.760999999999999899e-01 -5.687189999999999745e-01 -2.556539999999999924e-01 4.582080000000000042e-01 -2.391129999999999922e-01 3.836550000000000238e-01 -2.561959999999999793e-01 3.872749999999999804e-01 7.293159999999999643e-01 -3.942820000000000213e-01 -1.533210000000000128e-01 1.238579999999999959e-01 -7.259400000000000575e-02 6.034230000000000427e-01 4.441260000000000208e-01 -2.157890000000000086e-01 3.904900000000000038e-02 -1.743710000000000093e+00 -5.766600000000000198e-02 1.425178999999999974e+00 -5.578499999999999570e-01 -1.615659999999999874e-01 -1.060535000000000005e+00 -2.778329999999999966e-01 1.480720000000000092e-01 -1.448627000000000109e+00 -4.378499999999999753e-02 8.289050000000000029e-01 -2.635660000000000225e-01 -1.573506000000000071e+00 -5.437140000000000306e-01 -2.998680000000000234e-01 2.071489999999999998e-01 3.207909999999999928e-01 2.915639999999999898e-01 5.966409999999999769e-01 7.216080000000000272e-01 -2.194280000000000119e-01 -2.301239999999999952e+00 1.882199999999999845e-02 -5.807369999999999477e-01 4.678800000000000320e-02 -7.482469999999999954e-01 -1.052861000000000047e+00 8.735030000000000294e-01 9.126809999999999645e-01
3.775789999999999980e-01 1.675572999999999979e+00 -2.702689999999999815e-01 -6.343940000000000135e-01 6.266180000000000083e-01 -2.023439999999999961e-01 7.047759999999999581e-01 -9.463780000000000525e-01 -2.088729999999999976e+00 1.178094999999999892e+00 -3.134290000000000131e-01 -1.508626000000000023e+00 -2.208826999999999874e+00 -2.871427000000000174e+00 8.407909999999999551e-01 -8.111180000000000057e-01 1.182598000000000038e+00 7.566359999999999753e-01 -3.700900000000000023e-02 -4.264649999999999830e-01 -7.223200000000000454e-02 1.919219000000000008e+00 -1.353709999999999913e-01 2.844119999999999981e-01 -1.126959999999999962e+00 1.970628999999999964e+00 -7.671100000000000141e-02 1.079167999999999905e+00 1.184459999999999957e-01 -1.012534000000000045e+00 -9.167290000000000161e-01 -1.359353000000000034e+00 -2.167769999999999975e-01 -7.634849999999999692e-01 -8.514100000000000001e-01 -1.143350000000000088e+00 1.070133000000000001e+00 1.009821000000000080e+00 -5.928970000000000073e-01 1.292167000000000066e+00 2.116887000000000185e+00 1.720431000000000044e+00 1.527066999999999952e+00 1.075545999999999891e+00 5.515309999999999935e-01 1.343609000000000053e+00 3.322959999999999803e-01 1.113952999999999971e+00 6.009300000000000058e-02 1.989166999999999907e+00 -2.584350000000000258e-01 6.502069999999999794e-01 1.363477000000000050e+00 4.966229999999999811e-01 -1.568459000000000048e+00 1.387108000000000008e+00 3.178980000000000139e-01 -9.433329999999999771e-01 7.384570000000000300e-01 3.942600000000000271e-02 8.451229999999999576e-01 -1.177238000000000007e+00 1.455657999999999896e+00 3.180129999999999901e-01 -5.728969999999999896e-01 -1.669950000000000045e-01 1.496067999999999953e+00 -1.943119000000000041e+00 8.893140000000000489e-01 -6.842080000000000384e-01 -1.257322000000000051e+00 -9.735900000000000110e-02 -1.394000000000000057e-03 2.392332999999999821e+00 -2.355480000000000074e-01 7.897600000000000453e-02 -1.727180000000000104e-01 -2.220700000000000104e-02 -2.394850000000000034e-01 -1.190595999999999988e+00 -4.868990000000000262e-01 -3.287309999999999954e-01 -1.683974000000000082e+00 9.549689999999999568e-01 -8.492910000000000181e-01 -4.425689999999999902e-01 4.958910000000000262e-01 -5.601469999999999505e-01 9.343439999999999523e-01 -1.771359999999999879e-01 2.089903000000000066e+00 -1.932047999999999988e+00 -1.284070000000000045e+00 -8.749040000000000150e-01 1.141521999999999926e+00 -3.864529999999999910e-01 9.293759999999999799e-01 2.232989999999999975e-01 -2.834199999999999914e-02 -1.694620000000000015e+00 -5.788539999999999797e-01 -8.064609999999999834e-01 -1.053018999999999927e+00 -5.229599999999999804e-01 1.201409999999999978e-01 2.061489999999999989e-01 8.809690000000000021e-01 -8.004539999999999988e-01 -1.902652999999999928e+00 -1.320144999999999902e+00 9.045050000000000034e-01 -2.542551000000000005e+00 6.836160000000000014e-01 -2.984879999999999756e-01 -1.420930000000000026e+00 -3.155275000000000052e+00 1.784600000000000075e-02 -3.548939999999999872e-01 -8.665100000000000580e-02 4.622809999999999975e-01 -1.272605999999999904e+00 -7.562020000000000408e-01 -5.649079999999999657e-01 4.002577999999999747e+00 9.001550000000000384e-01 -1.686771999999999938e+00 2.868370000000000086e-01 -2.722470000000000168e-01 1.669615000000000071e+00 2.573389999999999844e+00 -8.824720000000000342e-01 -7.572780000000000067e-01 -1.812149999999999872e-01 -1.764910000000000090e-01 9.735920000000000130e-01 -1.287533000000000039e+00 3.199859999999999927e-01 -4.967900000000000094e-01 -2.884780000000000122e-01 7.951500000000000234e-01 1.050851999999999897e+00 -7.029090000000000060e-01 9.592469999999999608e-01 4.084720000000000018e-01 1.221357999999999944e+00 2.103659999999999974e-01 2.142259999999999998e-01
-1.225370000000000070e+00 -8.111979999999999746e-01 -7.589609999999999967e-01 -1.113121999999999945e+00 -1.569979999999999987e-01 6.054460000000000397e-01 -1.342694999999999972e+00 -2.298630000000000118e-01 1.986890000000000045e-01 -1.677569999999999895e-01 1.628570000000000073e+00 2.004829999999999945e-01 -1.960661999999999905e+00 -2.981780000000000097e+00 -2.112800000000000095e-02 7.526999999999999837e-03 -7.930000000000000382e-01 -8.990839999999999943e-01 2.140579999999999983e-01 7.293899999999999828e-01 -4.447999999999999871e-02 1.809663000000000022e+00 -4.482039999999999913e-01 4.435520000000000018e-01 -2.204438999999999815e+00 -1.723862000000000005e+00 -3.710120000000000084e-01 1.034867999999999899e+00 2.594303000000000026e+00 8.447109999999999896e-01 -6.199480000000000546e-01 -1.239441000000000015e+00 7.444359999999999866e-01 -4.191700000000000287e-02 -9.692739999999999689e-01 4.558010000000000117e-01 -5.235030000000000516e-01 4.740869999999999806e-01 3.660149999999999793e-01 -1.138957999999999915e+00 -1.855787000000000075e+00 8.683130000000000015e-01 -1.041746999999999979e+00 1.310969999999999913e-01 -1.689070999999999989e+00 9.792750000000000066e-01 1.693919999999999870e-01 1.377939999999999998e-01 6.952810000000000379e-01 2.007381000000000082e+00 1.850699999999999915e-02 -1.662628999999999913e+00 8.318670000000000231e-01 4.996999999999999706e-03 -8.107729999999999659e-01 1.028278000000000025e+00 -5.010300000000000170e-02 5.993659999999999544e-01 -9.181599999999999484e-02 -7.679449999999999887e-01 2.951320000000000054e-01 -9.289439999999999920e-01 -8.484800000000000120e-01 1.890419999999999878e-01 1.656959000000000071e+00 4.410649999999999848e-01 -1.332099999999999951e-01 -8.257399999999999463e-02 -8.375900000000000012e-02 1.198911999999999978e+00 1.462500000000000085e-02 -1.036542000000000074e+00 -7.578999999999999800e-03 2.786856000000000222e+00 -5.988630000000000342e-01 1.533055999999999974e+00 -9.718170000000000419e-01 -3.344539999999999735e-01 6.606980000000000075e-01 2.459935000000000205e+00 6.303189999999999626e-01 3.542700000000000016e-02 6.751160000000000494e-01 6.872399999999999620e-01 3.841109999999999802e-01 -1.241450000000000053e-01 -7.596110000000000362e-01 8.615730000000000333e-01 -1.920719999999999927e-01 3.848969999999999891e-01 3.398950000000000027e-01 1.250699999999999867e-01 3.777360000000000162e-01 4.664659999999999918e-01 -3.592369999999999730e-01 3.227300000000000307e-02 -4.976539999999999853e-01 7.038140000000000507e-01 4.074809999999999821e-01 -2.885119999999999907e-01 1.373070000000000124e-01 7.043960000000000221e-01 -1.351955000000000018e+00 -1.595107999999999970e+00 -1.336445000000000105e+00 -3.665849999999999942e-01 -1.001265999999999989e+00 1.291289999999999938e-01 -1.080192000000000041e+00 6.317080000000000473e-01 1.395804000000000045e+00 3.711869999999999892e-01 -7.043999999999999914e-03 5.551800000000000068e-01 1.537439999999999918e-01 -2.321763999999999939e+00 -7.606699999999999573e-02 1.561552000000000051e+00 -3.718500000000000277e-02 -8.505850000000000355e-01 -1.145254999999999912e+00 1.232571000000000083e+00 1.143118999999999996e+00 1.425362000000000018e+00 3.957709999999999839e-01 -3.438820000000000210e-01 -7.614999999999999547e-01 -1.618721000000000076e+00 1.534339999999999871e-01 1.846432999999999991e+00 1.781770999999999994e+00 7.827530000000000321e-01 -2.006540999999999908e+00 -9.535529999999999839e-01 -9.139009999999999634e-01 1.127005999999999952e+00 -9.689020000000000410e-01 -3.999730000000000230e-01 7.711240000000000316e-01 1.431435999999999931e+00 1.148199999999999915e-02 2.736941999999999986e+00 -5.300289999999999724e-01 5.657029999999999559e-01 1.948030000000000039e-01 -6.337180000000000035e-01 -1.106411999999999951e+00
1.486164999999999958e+00 -3.270800000000000096e-02 -6.925270000000000037e-01 5.495640000000000525e-01 2.564919999999999867e+00 -4.030920000000000059e-01 1.439109999999999889e+00 2.265700000000000006e-02 1.198576000000000086e+00 2.136391999999999847e+00 5.541310000000000402e-01 7.722050000000000303e-01 1.042443000000000008e+00 6.735020000000000451e-01 -1.601930999999999994e+00 -1.644420000000000048e-01 -7.401379999999999626e-01 -9.809039999999999981e-01 1.092999999999999944e-01 -2.566339999999999733e-01 6.256709999999999772e-01 -2.799239000000000033e+00 -3.920620000000000216e-01 2.325285000000000046e+00 -7.045590000000000463e-01 -9.956580000000000430e-01 2.245779999999999887e+00 -1.352170000000000039e-01 2.668470999999999815e+00 -1.258826000000000001e+00 1.661075000000000079e+00 -2.376126000000000182e+00 3.387629999999999808e-01 1.126285999999999898e+00 -2.394092999999999805e+00 1.174582999999999933e+00 -3.575490000000000057e-01 -6.856700000000000017e-01 8.504200000000000648e-02 1.558278999999999970e+00 4.508099999999999885e-01 -1.677834999999999965e+00 6.254009999999999847e-01 1.867594999999999894e+00 -1.229193999999999898e+00 -3.038149999999999906e+00 1.017544000000000004e+00 5.188770000000000326e-01 2.086235999999999979e+00 1.937980000000000036e+00 4.515379999999999949e-01 -2.138740000000000085e-01 3.336899999999999866e-01 -1.226364999999999927e+00 -3.208324000000000176e+00 -2.591939999999999800e-01 1.534729999999999983e-01 1.225581000000000031e+00 -6.283199999999999896e-02 9.758100000000000107e-02 -3.690030000000000254e-01 -2.675546000000000202e+00 -5.275469999999999882e-01 -2.559874999999999901e+00 6.178299999999999764e-02 -1.367879999999999929e-01 -1.395383000000000040e+00 8.621469999999999967e-01 8.869209999999999594e-01 -9.198450000000000237e-01 5.325619999999999798e-01 -1.317935000000000079e+00 5.679279999999999884e-01 1.337499999999999911e+00 9.623700000000000310e-02 9.196339999999999515e-01 -3.378619999999999957e-01 8.383850000000000469e-01 -6.408599999999999852e-01 -6.040670000000000206e-01 -1.517499999999999960e-01 1.838054999999999994e+00 8.990199999999999581e-02 7.146179999999999755e-01 2.456951999999999803e+00 -1.790691000000000033e+00 4.893060000000000187e-01 1.336165000000000047e+00 1.474939999999999862e-01 8.281549999999999745e-01 -5.286020000000000163e-01 -7.489980000000000526e-01 2.534006999999999898e+00 3.230252000000000123e+00 -9.012179999999999636e-01 9.227410000000000334e-01 4.656029999999999891e-01 -3.351419999999999955e-01 -1.232150000000000051e-01 -2.731869999999999798e+00 -1.112703999999999915e+00 7.317160000000000331e-01 2.496881999999999824e+00 -8.147219999999999462e-01 6.852949999999999875e-01 -2.175575999999999954e+00 1.941183000000000103e+00 -6.673099999999999865e-02 8.694790000000000019e-01 2.247186999999999824e+00 2.084068999999999949e+00 -1.441146999999999956e+00 1.342499000000000109e+00 -8.903200000000000003e-02 -1.114311999999999969e+00 1.045811000000000046e+00 7.796779999999999822e-01 -1.133232000000000017e+00 -2.327507000000000215e+00 -3.034114000000000200e+00 -3.559649999999999759e-01 1.741586000000000078e+00 5.244830000000000325e-01 -5.037650000000000183e-01 9.555890000000000217e-01 -6.118099999999999927e-02 -4.069530000000000092e-01 -1.012199999999999989e+00 -7.655000000000000693e-02 -5.422460000000000058e-01 -4.731110000000000038e-01 -1.444905000000000106e+00 5.874219999999999997e-01 -2.458250000000000046e+00 5.941400000000000153e-02 3.048460000000000059e-01 -1.507325999999999944e+00 -3.040535000000000210e+00 -1.603614000000000095e+00 6.169930000000000136e-01 1.061261000000000010e+00 -7.627099999999999991e-01 1.653181000000000012e+00 -1.173647000000000107e+00 -3.127349999999999852e-01 -1.372260000000000035e+00 -2.909053999999999807e+00
6.237510000000000554e-01 1.675983999999999918e+00 -3.600670000000000259e-01 -1.325939999999999896e-01 8.752579999999999805e-01 4.236719999999999930e-01 3.679439999999999933e-01 -1.637034000000000100e+00 1.750249999999999861e-01 1.084054000000000073e+00 -5.640249999999999986e-01 6.684409999999999519e-01 -1.330263999999999891e+00 5.454759999999999609e-01 6.132349999999999746e-01 -6.197190000000000198e-01 -9.065929999999999822e-01 9.481190000000000451e-01 -6.642409999999999703e-01 -1.982559999999999878e-01 -4.319140000000000201e-01 -1.158101999999999965e+00 -2.482630000000000114e-01 5.449610000000000287e-01 1.971983999999999959e+00 4.772200000000000053e-02 -9.868999999999999995e-02 2.992239999999999789e+00 -2.188041000000000125e+00 9.881739999999999968e-01 1.070491999999999999e+00 1.182280999999999915e+00 -2.827049999999999841e-01 1.766709999999999947e-01 -4.315939999999999777e-01 2.884530000000000149e-01 3.411049999999999915e-01 7.519639999999999658e-01 -4.532559999999999922e-01 -1.624605999999999995e+00 8.852759999999999518e-01 6.761989999999999945e-01 -6.893869999999999720e-01 1.490213999999999928e+00 4.379489999999999772e-01 -3.574840000000000240e-01 -4.593789999999999818e-01 -6.825170000000000403e-01 -4.633530000000000149e-01 -5.210019999999999651e-01 -7.046430000000000193e-01 -1.023654999999999982e+00 -1.887129000000000056e+00 5.642759999999999998e-01 7.845699999999999896e-01 -1.015557000000000043e+00 -3.971999999999999975e-01 -3.882900000000000240e-01 1.488375000000000004e+00 -4.295439999999999814e-01 5.433400000000000035e-02 -3.482439999999999980e-01 -3.026499999999999746e-01 -6.735210000000000363e-01 -2.517758000000000163e+00 -2.196750000000000091e-01 2.646459999999999924e-01 1.125120000000000009e-01 -3.543180000000000218e-01 1.183307000000000109e+00 -7.289240000000000164e-01 -5.962359999999999882e-01 -6.003450000000000175e-01 -1.017868999999999913e+00 4.445439999999999947e-01 -3.888039999999999830e-01 1.138703000000000021e+00 -1.140779999999999988e-01 1.875640000000000085e-01 -3.084950000000000192e-01 6.062469999999999803e-01 4.910999999999999810e-01 -1.145489999999999897e+00 6.156359999999999610e-01 2.088980000000000004e-01 2.073439000000000032e+00 -3.209790000000000143e-01 -8.993339999999999668e-01 9.743870000000000031e-01 -7.894459999999999811e-01 -1.290886999999999896e+00 -1.163316999999999934e+00 -2.354769999999999919e-01 -1.029547999999999908e+00 1.302607999999999988e+00 -2.264990000000000059e-01 2.222332000000000196e+00 4.337200000000000083e-02 -1.014448999999999934e+00 -4.742540000000000089e-01 -5.448999999999999677e-02 -8.681400000000000228e-02 5.114549999999999930e-01 1.575895000000000046e+00 7.048339999999999606e-01 9.736979999999999524e-01 8.355900000000000549e-01 -2.467020000000000046e-01 -5.854719999999999924e-01 1.039311000000000096e+00 7.265470000000000539e-01 1.784635999999999889e+00 4.287869999999999737e-01 2.153160000000000074e-01 1.071871000000000018e+00 5.677870000000000417e-01 3.467430000000000234e-01 2.893789999999999973e-01 -5.711420000000000385e-01 5.033570000000000544e-01 -8.131040000000000489e-01 7.730230000000000157e-01 -1.745339999999999892e+00 1.073927999999999994e+00 -1.340143000000000084e+00 -2.010079999999999922e-01 1.484737999999999891e+00 1.775359999999999994e-01 9.253010000000000401e-01 4.854780000000000206e-01 -1.395372999999999974e+00 -1.053223000000000020e+00 -8.420640000000000347e-01 -4.245800000000000268e-02 3.108650000000000024e-01 -2.173290999999999862e+00 3.942109999999999781e-01 1.726320000000000077e-01 -2.191396000000000122e+00 -1.150410000000000044e-01 -5.387490000000000334e-01 -1.234682999999999975e+00 8.385949999999999793e-01 6.035409999999999942e-01 -5.177699999999999664e-02 -4.126900000000000013e-01 -6.178900000000000503e-01
-9.347360000000000113e-01 4.039000000000000055e-03 1.114683000000000090e+00 -1.101599999999999913e+00 3.153719999999999857e-01 -3.522356999999999960e+00 -1.597434000000000021e+00 3.785800000000000276e-01 -1.803300000000000042e-02 2.405844999999999789e+00 2.140855000000000175e+00 9.397199999999999998e-02 7.737720000000000153e-01 -2.463083000000000133e+00 4.628864000000000090e+00 -7.238480000000000469e-01 1.015739999999999976e-01 1.281458999999999904e+00 -2.468253999999999948e+00 -1.429086999999999996e+00 -1.971800999999999915e+00 1.844729000000000063e+00 -1.095858999999999916e+00 -1.004545000000000021e+00 3.869520000000000182e-01 -2.044610000000000039e-01 -2.205912000000000095e+00 2.005179000000000045e+00 -1.691165999999999947e+00 2.176175000000000193e+00 -4.723180000000000156e-01 1.852111999999999981e+00 5.369699999999999473e-01 1.741419000000000050e+00 5.902979999999999894e-01 2.794989999999999974e-01 -6.554600000000000426e-01 9.904359999999999831e-01 -9.606989999999999696e-01 6.194129999999999914e-01 -2.616341999999999945e+00 -6.025500000000000300e-01 -2.916750000000000176e-01 -2.141093000000000135e+00 -4.957529999999999992e-01 -4.984419999999999962e-01 3.948559999999999848e-01 5.371580000000000243e-01 -4.388059999999999738e-01 -1.415359000000000034e+00 -1.140501999999999905e+00 9.320669999999999789e-01 -3.826757999999999882e+00 -3.573084000000000149e+00 1.241954000000000002e+00 1.418210000000000026e-01 -1.430470000000000075e-01 -4.116969999999999796e-01 2.206526999999999905e+00 1.913024000000000058e+00 -1.095876999999999990e+00 -1.728730000000000100e+00 2.644880000000000009e-01 1.799225999999999992e+00 1.002059999999999951e+00 2.293969999999999898e-01 1.297247000000000039e+00 9.353089999999999460e-01 1.342190000000000050e-01 -1.886554000000000064e+00 6.403940000000000188e-01 -1.444816000000000100e+00 2.200448000000000182e+00 -6.149369999999999559e-01 -1.175140000000000073e+00 -1.988944999999999963e+00 -6.519589999999999552e-01 3.425962000000000174e+00 -1.675815999999999972e+00 1.603647000000000045e+00 -6.327559999999999851e-01 8.969610000000000083e-01 -9.892870000000000275e-01 4.719090000000000229e-01 2.355659999999999976e-01 1.827663999999999955e+00 -2.610034999999999883e+00 -2.756946000000000119e+00 1.458931999999999896e+00 -1.018188000000000093e+00 1.535241000000000078e+00 -1.672210000000000085e-01 3.261290000000000022e-01 6.389899999999999469e-01 -1.049122000000000110e+00 2.668784000000000045e+00 1.876206999999999958e+00 -1.570704000000000100e+00 9.792760000000000353e-01 -1.326457999999999915e+00 2.548791000000000029e+00 1.056210000000000065e-01 -6.580899999999999528e-01 -9.037800000000000000e-02 1.167815999999999965e+00 1.280998999999999999e+00 2.042323999999999806e+00 -2.046187000000000200e+00 -1.049876000000000031e+00 6.247850000000000348e-01 -1.443480000000000041e-01 3.149051000000000045e+00 3.051022000000000123e+00 -2.186933999999999934e+00 4.423440000000000150e-01 -2.332303000000000015e+00 9.999759999999999760e-01 -2.099782999999999955e+00 1.044788999999999968e+00 2.273193000000000019e+00 -5.162339999999999707e-01 -1.456506999999999996e+00 -1.912799999999999917e-02 -1.197111000000000036e+00 3.985029999999999961e-01 -1.523822999999999928e+00 -9.708229999999999915e-01 1.206231000000000053e+00 3.495747000000000160e+00 -5.101419999999999844e-01 1.966250000000000053e+00 -3.505480000000000262e-01 -1.197961000000000054e+00 9.650419999999999554e-01 -2.030450000000000088e+00 1.173057999999999934e+00 -2.865273000000000181e+00 -1.156482999999999928e+00 -2.360634999999999817e+00 1.350939999999999919e-01 3.018839999999999857e-01 1.280423000000000089e+00 2.091610000000000136e-01 1.223351999999999995e+00 1.128430999999999962e+00 -3.768420000000000103e-01 1.347563000000000066e+00
2.059040000000000037e-01 -2.705420000000000047e-01 -2.380190000000000083e-01 7.052000000000000109e-03 -4.380330000000000057e-01 5.074800000000000144e-02 -1.143620000000000053e-01 6.662300000000000166e-02 3.683499999999999969e-02 -2.492499999999999993e-01 1.494040000000000090e-01 -7.080500000000000682e-02 -7.178400000000000059e-02 -3.691429999999999989e-01 -5.910940000000000083e-01 3.764500000000000068e-01 -1.532610000000000083e-01 2.048830000000000096e-01 -8.668599999999999917e-02 -2.234799999999999981e-02 3.538399999999999879e-02 9.472400000000000264e-02 -4.353350000000000275e-01 3.472189999999999999e-01 -3.858500000000000263e-01 -1.398159999999999958e-01 3.263100000000000028e-02 2.895090000000000163e-01 -6.465600000000000513e-02 -2.005909999999999915e-01 -3.418800000000000311e-02 3.122260000000000035e-01 -2.077000000000000027e-02 -2.600200000000000081e-02 -2.966409999999999880e-01 3.044810000000000016e-01 -1.719569999999999987e-01 2.042630000000000001e-01 2.314660000000000051e-01 1.218749999999999972e-01 4.839140000000000108e-01 -4.560879999999999934e-01 -1.809129999999999905e-01 -1.740750000000000075e-01 2.158680000000000043e-01 -3.123549999999999938e-01 -9.452599999999999891e-02 -1.907240000000000046e-01 1.135130000000000028e-01 -4.520999999999999845e-03 3.270390000000000241e-01 -4.139360000000000261e-01 -3.264929999999999777e-01 -1.322000000000000085e-02 2.211639999999999995e-01 6.524999999999999689e-01 2.016590000000000049e-01 -3.156610000000000249e-01 9.795019999999999838e-01 -3.899719999999999853e-01 -8.825199999999999712e-02 3.234659999999999758e-01 2.606749999999999901e-01 9.185100000000000209e-02 7.187000000000000333e-02 -4.714400000000000257e-01 -3.351190000000000002e-01 -2.368300000000000127e-01 3.585889999999999911e-01 1.472600000000000020e-01 2.541749999999999843e-01 -2.152769999999999961e-01 2.441180000000000017e-01 -1.019349999999999978e-01 8.102420000000000178e-01 -2.061790000000000012e-01 -7.565099999999999603e-02 -2.286219999999999919e-01 -1.027990000000000015e-01 2.167699999999999905e-01 2.036610000000000087e-01 -1.467930000000000068e-01 -3.584579999999999989e-01 -4.891639999999999877e-01 -1.041920000000000068e-01 -1.645709999999999951e-01 3.742840000000000056e-01 -2.290560000000000096e-01 -5.456509999999999971e-01 5.405499999999999888e-02 -5.261199999999999904e-02 2.424840000000000051e-01 -1.286251000000000033e+00 4.350760000000000183e-01 2.931509999999999949e-01 -1.260479999999999934e-01 -2.014400000000000079e-01 -6.261569999999999636e-01 3.442749999999999977e-01 6.328219999999999956e-01 -2.597269999999999857e-01 -1.071320000000000050e-01 8.492140000000000244e-01 -3.049140000000000184e-01 1.006289999999999962e-01 4.842790000000000150e-01 -1.064360000000000028e-01 2.655609999999999915e-01 -5.405410000000000492e-01 -1.745039999999999925e-01 -1.227120000000000016e-01 -2.288519999999999999e-01 -3.544599999999999834e-02 -8.703299999999999925e-02 -2.178279999999999939e-01 1.546520000000000117e-01 -1.344920000000000004e-01 4.199919999999999765e-01 -6.572010000000000352e-01 -5.006460000000000354e-01 9.106100000000000305e-02 3.748900000000000149e-02 3.552290000000000170e-01 -8.469250000000000389e-01 3.833320000000000061e-01 5.096640000000000059e-01 6.129379999999999828e-01 4.409910000000000219e-01 4.591839999999999811e-01 1.235279999999999989e-01 -1.736379999999999868e-01 1.574969999999999981e-01 -1.691400000000000126e-01 5.903420000000000334e-01 -3.154379999999999962e-01 4.309600000000000097e-01 1.880199999999999927e-02 -1.267810000000000048e-01 -5.242900000000000338e-01 -8.500199999999999423e-02 -9.425300000000000344e-02 8.769529999999999825e-01 3.881160000000000165e-01 7.319010000000000238e-01 -5.132820000000000160e-01 4.314399999999999902e-01 -4.970859999999999723e-01
2.309585000000000221e+00 -2.412650000000000183e+00 -3.250999999999999984e-03 2.468967000000000134e+00 -2.649477000000000082e+00 1.129569000000000045e+00 1.199883999999999951e+00 9.010460000000000136e-01 -1.359180000000000110e-01 -1.622706999999999899e+00 3.460027999999999881e+00 -6.067749999999999533e-01 -1.412238000000000104e+00 -5.981379999999999475e-01 9.300540000000000473e-01 6.821150000000000269e-01 -1.086200000000000013e-02 5.721699999999999703e-02 2.175970000000000126e-01 -2.855889999999999818e-01 -1.637502999999999931e+00 -2.244599999999999929e-01 -1.378099999999999985e-02 -1.035598999999999936e+00 -1.220023000000000080e+00 1.186177000000000037e+00 -2.043286000000000158e+00 7.238179999999999614e-01 1.338646000000000003e+00 -1.388535000000000075e+00 -2.190519999999999967e-01 -7.127699999999999314e-02 5.667029999999999568e-01 -6.019579999999999931e-01 2.009616999999999987e+00 -1.298256999999999994e+00 1.272202999999999973e+00 -1.737039000000000000e+00 -1.887521000000000004e+00 -1.268370999999999915e+00 -1.876856999999999998e+00 -6.271170000000000355e-01 -2.482644000000000073e+00 4.532019999999999937e-01 -3.919420000000000126e-01 1.961367000000000083e+00 7.272899999999999920e-01 5.069194000000000422e+00 -9.587790000000000479e-01 1.195794999999999941e+00 -3.756880000000000219e-01 1.540219999999999922e-01 -8.041040000000000409e-01 -6.092720000000000358e-01 7.971700000000000452e-01 1.859889999999999877e-01 1.051682999999999923e+00 -5.946979999999999489e-01 -1.619172999999999973e+00 6.344039999999999679e-01 -1.890959999999999863e-01 9.528599999999999570e-02 2.476554000000000144e+00 -1.542170000000000041e+00 -4.570400000000000018e-01 8.802560000000000384e-01 7.849720000000000031e-01 -2.142961000000000116e+00 1.630988000000000104e+00 -1.257199999999999984e-02 3.444180000000000019e-01 8.423549999999999649e-01 1.461508000000000029e+00 6.583369999999999500e-01 -5.798280000000000101e-01 1.088327999999999962e+00 6.658720000000000194e-01 -2.037923999999999847e+00 4.730860000000000065e-01 2.213770999999999933e+00 -2.320513000000000048e+00 8.307719999999999549e-01 1.383780999999999928e+00 7.100379999999999470e-01 1.110359999999999958e-01 -9.231970000000000454e-01 -2.233176999999999968e+00 2.680006000000000110e+00 4.974569999999999825e-01 -1.292308999999999930e+00 -1.418510000000000049e-01 -2.585089999999999888e-01 8.809869999999999646e-01 -2.993093000000000004e+00 -1.447756000000000043e+00 -1.485499999999999876e-01 -5.084140000000000326e-01 2.065176999999999818e+00 -2.139623999999999970e+00 -1.020829999999999932e-01 -2.498340000000000005e-01 1.131272000000000055e+00 -1.137356999999999951e+00 2.360299999999999898e-02 -8.959829999999999739e-01 -4.265970000000000040e-01 3.733460000000000112e-01 -1.524032999999999971e+00 -3.026659999999999906e-01 -3.208949999999999858e-01 2.278214000000000183e+00 -1.428422999999999998e+00 2.500998000000000054e+00 2.527552000000000021e+00 8.669019999999999504e-01 -1.541978000000000071e+00 -4.024289999999999812e-01 8.180490000000000261e-01 -2.191427000000000014e+00 -2.752467000000000219e+00 -3.816019999999999968e-01 2.099657999999999802e+00 1.190002000000000004e+00 2.218674000000000035e+00 1.532202999999999982e+00 1.907590000000000119e-01 -3.010240000000000027e+00 -1.348268000000000022e+00 1.484364999999999934e+00 5.371700000000000363e-01 1.707609999999999961e-01 2.024445000000000050e+00 -9.072449999999999681e-01 -1.968542000000000014e+00 -1.503632000000000080e+00 3.530289999999999817e-01 -1.577053000000000038e+00 8.601499999999999702e-01 2.140918999999999794e+00 1.574611999999999901e+00 3.698699999999999766e-01 -3.223024000000000111e+00 1.554176000000000002e+00 1.210559999999999969e-01 7.601830000000000531e-01 -2.704842999999999886e+00 8.334439999999999626e-01