2.699785149110880766e+01 -1.816482356243423801e+00 5.457518717919184859e+00 -1.816482356243423801e+00 3.508039382221264191e+01 1.345932448553732730e+00 5.457518717919184859e+00 1.345932448553732730e+00 4.395441655317988250e+00
3.407846483248425073e+01 7.319871181021063933e+00 8.882346028493300238e+00 7.319871181021063933e+00 3.196807025332639896e+01 -7.063892227815080638e+00 8.882346028493300238e+00 -7.063892227815080638e+00 2.201340031619265147e+01
-2.478950878022466142e+01 3.606602277484115326e+00 5.743487933759209518e+00 3.606602277484115326e+00 -3.359540032449591251e+01 1.210509615902210534e+01 5.743487933759209518e+00 1.210509615902210534e+01 -2.978357951054241681e+01
2.635848871157564588e+01 -1.130763921279295481e+01 -1.514700655834559129e+01 -1.130763921279295481e+01 2.987191124469830328e+01 6.721808003121964248e+00 -1.514700655834559129e+01 6.721808003121964248e+00 1.666607260353739406e+01
1.455663423362568309e+01 -5.592083062189781906e+00 1.347487986627147372e+01 -5.592083062189781906e+00 1.739207610057312792e+01 -1.041737530928083189e+01 1.347487986627147372e+01 -1.041737530928083189e+01 -1.451549725590197459e+00
7.591943835621375314e+00 -3.883565731425869583e+00 8.179068433364079738e+00 -3.883565731425869583e+00 1.445738053668960710e+01 -2.858177811498188170e-01 8.179068433364079738e+00 -2.858177811498188170e-01 6.928479078753751352e+00
2.013512378308151085e+01 -8.994680200330560371e-01 -1.712404255346473780e+00 -8.994680200330560371e-01 1.709176636918342140e+01 -4.436878546929686751e-01 -1.712404255346473780e+00 -4.436878546929686751e-01 -1.864011382179077803e+00
1.170805575887612626e+01 2.027407585695133907e+00 5.389487251982783000e+00 2.027407585695133907e+00 1.906834058845639746e+01 6.898305567171472141e+00 5.389487251982783000e+00 6.898305567171472141e+00 1.735201920736840364e+01
3.195806966004401062e+01 -1.288885483687497135e+01 3.844183250616737824e-01 -1.288885483687497135e+01 3.499182529517923967e+01 1.617818156670532970e+00 3.844183250616737824e-01 1.617818156670532970e+00 5.031274164182252484e+00
-1.330619004934461813e+01 3.694520743236933136e+00 -2.139519798976818876e+00 3.694520743236933136e+00 -1.488885048294264202e+01 -3.986431997866500820e-01 -2.139519798976818876e+00 -3.986431997866500820e-01 -1.599916521799834079e+01
-1.605826857363485161e+01 -6.836497789960144900e+00 1.849090957457389051e+00 -6.836497789960144900e+00 -3.276137083540935890e+01 -4.950851020059814367e+00 1.849090957457389051e+00 -4.950851020059814367e+00 -2.676057780440522293e+01
-1.731162906261183565e+01 -9.028678189448436919e-01 -4.321429078118574019e+00 -9.028678189448436919e-01 -1.836060929362660232e+01 -4.093607650473938264e+00 -4.321429078118574019e+00 -4.093607650473938264e+00 -7.491665796846826098e+00
-1.213721217790902474e+00 -1.005806063356321367e+01 3.676649662901615212e+00 -1.005806063356321367e+01 -1.960777564219801050e+01 -5.889960661637389627e+00 3.676649662901615212e+00 -5.889960661637389627e+00 -1.461057442674058571e+01
1.203911100115624144e+01 7.706545847978019115e-02 9.644910314079458757e+00 7.706545847978019115e-02 6.337100505437201825e+00 6.650108103799390769e+00 9.644910314079458757e+00 6.650108103799390769e+00 1.392308654841616011e+01
-1.009195149849613315e+01 -6.025462554277608795e+00 -4.152814440989323508e+00 -6.025462554277608795e+00 -6.719099040040174664e+00 -3.426195781485622316e+00 -4.152814440989323508e+00 -3.426195781485622316e+00 -4.408658940489178057e+00
1.576853345679528928e+01 -2.472028439334919003e+00 5.051562521264793659e+00 -2.472028439334919003e+00 1.660133437678978297e+01 -6.038198562881736287e+00 5.051562521264793659e+00 -6.038198562881736287e+00 2.937489222517572163e+00
1.863021129931195929e+01 -6.673624287654249532e-01 -5.009835074648314901e+00 -6.673624287654249532e-01 5.451132028729903212e+00 -7.783037085806872035e+00 -5.009835074648314901e+00 -7.783037085806872035e+00 4.689248101468516339e+00
-1.194208648115300164e+01 -1.525464211895544597e+00 3.864462892336439470e+00 -1.525464211895544597e+00 -1.242682609040323882e+01 -4.505965355890104510e-03 3.864462892336439470e+00 -4.505965355890104510e-03 8.933363932862082635e+00
-1.273212933994205187e+01 -2.629304200580930395e+00 -2.294201716457093365e+00 -2.629304200580930395e+00 -1.334756219830118162e+01 -5.182926211145198359e+00 -2.294201716457093365e+00 -5.182926211145198359e+00 -2.010217613220588007e+01
2.548682280990938054e+01 -3.905408914895199590e+00 -4.447597820273139213e-01 -3.905408914895199590e+00 2.194233190815715417e+01 6.781648244151390337e-01 -4.447597820273139213e-01 6.781648244151390337e-01 3.397586518249997578e+00
6.936786380004559049e+00 -4.742444672880257173e+00 -2.525568147251478823e+00 -4.742444672880257173e+00 6.390320748906347603e+00 5.714876963646377206e+00 -2.525568147251478823e+00 5.714876963646377206e+00 -6.194109902767259257e+00
5.023648380181958473e+00 1.006907619952551691e+01 -1.772022260866990884e+00 1.006907619952551691e+01 1.254937170826262716e-01 -5.203422934623690210e+00 -1.772022260866990884e+00 -5.203422934623690210e+00 -3.789545891764474650e+00
4.406496014523317939e+01 -1.404286446610831085e+01 1.066819491032908473e+01 -1.404286446610831085e+01 1.606392631761541523e+01 -5.218320938406581178e+00 1.066819491032908473e+01 -5.218320938406581178e+00 2.545644952536527672e+00
5.667094710242222533e+01 1.137972079613630605e+01 -9.182180206474647832e+00 1.137972079613630605e+01 4.702795712066731681e+01 -1.493416951228300604e+01 -9.182180206474647832e+00 -1.493416951228300604e+01 1.173713428721134733e+01
5.730655668641980505e+00 -4.011988658089326698e+00 2.406243447589300644e+00 -4.011988658089326698e+00 -1.080379912567032807e+00 -2.898582616959993530e+00 2.406243447589300644e+00 -2.898582616959993530e+00 -9.569697045880440456e+00
1.912995411275243285e+01 -7.903250556320995379e-01 -4.308308100853589728e+00 -7.903250556320995379e-01 1.903837260716697699e+01 -1.240339220171807710e+01 -4.308308100853589728e+00 -1.240339220171807710e+01 -3.727286703323016326e+01
1.717836832718949935e+01 -6.224054015922863003e-01 -1.397554733451401177e+01 -6.224054015922863003e-01 5.093886992436072347e+01 1.207822822127685747e+01 -1.397554733451401177e+01 1.207822822127685747e+01 1.603811267801699003e+01
-2.396709294321306771e+01 6.553846835094896406e+00 6.296730157669347960e+00 6.553846835094896406e+00 -2.561071381284648751e+01 1.294399175706872285e+01 6.296730157669347960e+00 1.294399175706872285e+01 -3.170853057749842563e+01
1.455204939344204362e+01 -1.175951712536102534e+01 2.836693647060541501e+00 -1.175951712536102534e+01 1.763012242512327887e+01 -2.335144672757175077e-02 2.836693647060541501e+00 -2.335144672757175077e-02 7.820137442865255473e+00
1.098990775954268173e+01 -3.214616523318801544e+00 1.130588358696188234e+00 -3.214616523318801544e+00 1.740726295713372096e+01 7.935678597742839013e-01 1.130588358696188234e+00 7.935678597742839013e-01 -9.995971447930893650e-01
2.237174211195421591e+01 9.253928214559799414e+00 -2.404501224767197076e+00 9.253928214559799414e+00 3.964758461646469101e+01 1.547233606406869910e+00 -2.404501224767197076e+00 1.547233606406869910e+00 1.261263802752552721e+01
1.747657668133370024e+01 -2.084290570703720924e+00 -1.119488605127503256e+00 -2.084290570703720924e+00 1.439247788016940177e+01 -1.608532235789576076e-02 -1.119488605127503256e+00 -1.608532235789576076e-02 9.947044107701424664e+00
1.606934310218728967e+01 2.312183314471383255e+00 -3.552473964149830410e-01 2.312183314471383255e+00 1.008533751767248354e+01 -2.324766344114948868e+00 -3.552473964149830410e-01 -2.324766344114948868e+00 -1.535176144935238574e-01
6.821786324166172477e-01 4.118670702752015522e+00 4.360021686454943257e+00 4.118670702752015522e+00 9.000935580266482106e+00 2.976691740141160114e+00 4.360021686454943257e+00 2.976691740141160114e+00 5.308969603215952127e+00
3.459403621805916629e+01 1.979283404122451850e+00 -3.952892092799318746e+00 1.979283404122451850e+00 3.158679471781506720e+01 4.657064949154809064e+00 -3.952892092799318746e+00 4.657064949154809064e+00 3.053028987906170144e+01
1.859947442371567305e+01 1.365390043688734734e+00 4.812978221967372239e-01 1.365390043688734734e+00 1.387247559046171475e+01 2.927652968967989766e-01 4.812978221967372239e-01 2.927652968967989766e-01 2.886081279727583659e-01
-6.969095377631289168e+00 -4.469924944242885445e+00 -2.056390045026528224e+00 -4.469924944242885445e+00 7.939463763807800945e+00 4.458802634806458443e+00 -2.056390045026528224e+00 4.458802634806458443e+00 8.374149235386028067e+00
-4.055345730779273516e+00 6.629935265710480863e+00 8.538962086401724605e+00 6.629935265710480863e+00 -5.658677299107679026e+00 -5.333720816695316280e+00 8.538962086401724605e+00 -5.333720816695316280e+00 1.540856024342197372e+01
4.678264842344965757e+00 -3.145788315853642381e+00 -1.209712426614939051e+00 -3.145788315853642381e+00 -2.488110011547316702e+00 -7.896265165859267299e+00 -1.209712426614939051e+00 -7.896265165859267299e+00 3.165454921135863842e+01
3.277206812870930719e+01 -3.047467461349035567e+00 2.712745248299828660e+00 -3.047467461349035567e+00 2.059713713122373591e+01 6.941948907695012494e-01 2.712745248299828660e+00 6.941948907695012494e-01 1.012010468877297775e+01
-1.582819321128823953e+00 -5.683697149735443155e+00 -2.031656270060208769e+00 -5.683697149735443155e+00 -3.803688095439535122e+00 8.772174333137340296e-01 -2.031656270060208769e+00 8.772174333137340296e-01 -9.552466873956036997e-01
1.944399895965671021e+01 3.166163255977586299e+00 9.912891628512016107e-01 3.166163255977586299e+00 1.835714267115547926e+01 -1.682313437885883500e+00 9.912891628512016107e-01 -1.682313437885883500e+00 6.280894116840124219e+00
4.188204315520757604e+01 1.656478156020121939e-01 6.139817932740433193e+00 1.656478156020121939e-01 2.260723120816982146e+01 -7.719193842770893710e+00 6.139817932740433193e+00 -7.719193842770893710e+00 2.054394444718531787e+01
2.547073396103132836e+01 -3.280112026986718998e+00 6.119068701658122222e+00 -3.280112026986718998e+00 2.047243793029021930e+01 8.393460989396732685e+00 6.119068701658122222e+00 8.393460989396732685e+00 2.233530286809428489e+01
2.152103447255606383e+01 -1.659382661783915802e+00 -1.290583891777947301e+00 -1.659382661783915802e+00 1.863625979660622178e+01 -1.163676030869591704e+00 -1.290583891777947301e+00 -1.163676030869591704e+00 -1.965716883607534493e+00
1.582244223196137511e+01 1.012004140987521339e+00 3.693222863721524973e+00 1.012004140987521339e+00 1.221574368010012357e+01 2.803520060610965370e+00 3.693222863721524973e+00 2.803520060610965370e+00 -2.364493504067202601e+00
-8.363283801444762133e+00 -4.723718929166634162e+00 -5.540109302626791354e+00 -4.723718929166634162e+00 -2.350070395576409155e+01 2.509366855354453030e+00 -5.540109302626791354e+00 2.509366855354453030e+00 9.476864667126889685e+00
2.446610938182378447e+01 3.545462785968601871e+00 -6.787642332944389345e+00 3.545462785968601871e+00 -2.259587654911606069e+00 3.315762022152001443e+00 -6.787642332944389345e+00 3.315762022152001443e+00 -3.718052731664196475e+00
2.892641705225534210e+01 -4.700593655861816877e+00 3.487919071397262094e+00 -4.700593655861816877e+00 1.801522832048265954e+01 4.469050439504998806e+00 3.487919071397262094e+00 4.469050439504998806e+00 2.817955792148271410e+00
4.513117803118326776e+00 -2.947342299532435206e+00 1.559227223590707645e+01 -2.947342299532435206e+00 4.084153956093683036e+00 7.713048525962278745e+00 1.559227223590707645e+01 7.713048525962278745e+00 -4.440492453512750792e+00
