1.595150000000000068e+00 7.480900000000000327e-01 3.892259999999999831e+00 1.718539999999999957e+00 8.947100000000000053e-01 8.794829999999999259e+00 6.331240000000000201e+00 3.691819999999999879e+00 3.888700000000000045e+00 6.445470000000000255e+00 3.950559999999999850e+00 8.657500000000000639e+00 4.678020000000000067e+00 6.548960000000000115e+00 3.648930000000000007e+00 4.724859999999999616e+00 6.509649999999999714e+00 8.651559999999999917e+00 4.849199999999999733e+00 1.043730000000000047e+00 3.801509999999999945e+00 4.782729999999999926e+00 1.097439999999999971e+00 8.842320000000000846e+00 3.194119999999999848e+00 3.751980000000000093e+00 3.530549999999999855e+00 3.202989999999999782e+00 3.942569999999999908e+00 8.457990000000000563e+00 1.549360000000000070e+00 6.475430000000000241e+00 4.015259999999999607e+00 1.579150000000000054e+00 6.647639999999999993e+00 8.472329999999999472e+00 6.425089999999999968e+00 1.777649999999999952e+00 1.606810000000000072e+00 6.297430000000000305e+00 1.876360000000000028e+00 6.090510000000000090e+00 4.877519999999999634e+00 4.599310000000000009e+00 7.463600000000000234e-01 4.694180000000000241e+00 4.661349999999999660e+00 6.299719999999999764e+00 2.944389999999999841e+00 7.393139999999999823e+00 1.632149999999999990e+00 3.284359999999999946e+00 7.529810000000000336e+00 6.327679999999999971e+00 3.237699999999999800e+00 1.766820000000000057e+00 1.455759999999999943e+00 3.138879999999999892e+00 2.135299999999999976e+00 6.148480000000000167e+00 1.776639999999999997e+00 4.703120000000000189e+00 1.401659999999999906e+00 1.543109999999999982e+00 4.710460000000000313e+00 6.249859999999999971e+00 6.269529999999999603e+00 7.336129999999999818e+00 1.744620000000000060e+00 6.431420000000000137e+00 7.478390000000000093e+00 6.116050000000000431e+00 1.601259999999999906e+00 8.391699999999999715e-01 1.030929999999999902e+00 1.653370000000000006e+00 9.872900000000000009e-01 5.686689999999999579e+00 6.372180000000000177e+00 3.588130000000000042e+00 1.070950000000000069e+00 6.219940000000000246e+00 3.737719999999999931e+00 5.714649999999999785e+00 4.707950000000000301e+00 6.267120000000000246e+00 1.575229999999999908e+00 4.710200000000000387e+00 6.569420000000000037e+00 5.698010000000000019e+00 4.781170000000000364e+00 7.953000000000000069e-01 1.137950000000000017e+00 4.667729999999999713e+00 1.034929999999999906e+00 5.738570000000000171e+00 3.348770000000000024e+00 3.685789999999999900e+00 1.378239999999999910e+00 3.223899999999999988e+00 3.850000000000000089e+00 5.500200000000000422e+00 1.580559999999999965e+00 6.443730000000000402e+00 9.027600000000000069e-01 1.635529999999999928e+00 6.428709999999999702e+00 5.850830000000000197e+00 6.357940000000000147e+00 1.913650000000000073e+00 3.465139999999999887e+00 6.538649999999999629e+00 1.942399999999999904e+00 8.094689999999999941e+00 4.939510000000000289e+00 4.667060000000000208e+00 8.210879999999999512e+00 3.069519999999999804e+00 7.254909999999999748e+00 3.430130000000000123e+00 3.239980000000000082e+00 7.427010000000000112e+00 8.124679999999999680e+00 3.069630000000000081e+00 1.879899999999999904e+00 3.397940000000000182e+00 3.128060000000000063e+00 1.988320000000000087e+00 8.177789999999999893e+00 1.517099999999999893e+00 4.694309999999999761e+00 3.342130000000000045e+00 1.617949999999999999e+00 4.748400000000000176e+00 8.081189999999999429e+00 6.184590000000000032e+00 7.464179999999999815e+00 3.459760000000000169e+00 6.213250000000000384e+00 7.617239999999999789e+00 8.293889999999999318e+00
1.677799999999999958e+00 8.685699999999999532e-01 3.090590000000000170e+00 1.734369999999999967e+00 9.271899999999999586e-01 7.424680000000000391e+00 6.438270000000000159e+00 3.689060000000000006e+00 3.159720000000000084e+00 6.384299999999999642e+00 3.638110000000000177e+00 7.651980000000000004e+00 4.943939999999999557e+00 6.692149999999999821e+00 3.163100000000000023e+00 4.870739999999999625e+00 6.498829999999999885e+00 7.371719999999999828e+00 4.920239999999999725e+00 1.163629999999999942e+00 3.088820000000000121e+00 4.832309999999999661e+00 1.099189999999999889e+00 7.351060000000000372e+00 2.972789999999999822e+00 3.546209999999999862e+00 3.324930000000000163e+00 3.116699999999999804e+00 3.665099999999999802e+00 7.410289999999999822e+00 1.638090000000000046e+00 6.395039999999999836e+00 3.076550000000000118e+00 1.646740000000000093e+00 6.374600000000000044e+00 7.318609999999999616e+00 6.462850000000000428e+00 1.699629999999999974e+00 1.064799999999999969e+00 6.628400000000000070e+00 1.853439999999999976e+00 5.201010000000000133e+00 4.694840000000000124e+00 4.812660000000000160e+00 9.250099999999999989e-01 4.766200000000000436e+00 4.664509999999999934e+00 5.268480000000000274e+00 3.224279999999999813e+00 7.500090000000000146e+00 9.546700000000000186e-01 3.301890000000000214e+00 7.397529999999999717e+00 5.274390000000000356e+00 3.304790000000000116e+00 1.908379999999999965e+00 9.168500000000000538e-01 3.376250000000000195e+00 1.919519999999999893e+00 5.276370000000000005e+00 1.632069999999999910e+00 4.540140000000000065e+00 1.023640000000000105e+00 1.600260000000000016e+00 4.434929999999999595e+00 5.460790000000000255e+00 6.497969999999999580e+00 7.429979999999999585e+00 1.053060000000000107e+00 6.533240000000000158e+00 7.510930000000000106e+00 5.170480000000000409e+00 1.778950000000000031e+00 9.560600000000000209e-01 1.022569999999999979e+00 1.696939999999999893e+00 9.047600000000000087e-01 5.561799999999999855e+00 6.337989999999999569e+00 3.774199999999999999e+00 1.238979999999999970e+00 6.390460000000000029e+00 3.726259999999999906e+00 5.159639999999999560e+00 4.723919999999999675e+00 6.593320000000000292e+00 1.099229999999999929e+00 4.949699999999999989e+00 6.486930000000000085e+00 5.030129999999999768e+00 4.752629999999999910e+00 1.047590000000000021e+00 1.160279999999999978e+00 4.963479999999999670e+00 1.068500000000000005e+00 5.122489999999999988e+00 3.263560000000000016e+00 3.720029999999999948e+00 1.238560000000000105e+00 3.242090000000000138e+00 3.707129999999999814e+00 5.227319999999999744e+00 1.624030000000000085e+00 6.547789999999999999e+00 1.046040000000000081e+00 1.725370000000000070e+00 6.279899999999999594e+00 5.146600000000000286e+00 6.585650000000000226e+00 1.774110000000000076e+00 3.010120000000000129e+00 6.527569999999999872e+00 1.790850000000000053e+00 7.314820000000000100e+00 4.872049999999999770e+00 4.572199999999999598e+00 7.434409999999999741e+00 3.216200000000000170e+00 7.409089999999999954e+00 3.419770000000000199e+00 3.309159999999999879e+00 7.352330000000000254e+00 7.413520000000000110e+00 3.270540000000000003e+00 1.860340000000000105e+00 3.466819999999999791e+00 3.298249999999999904e+00 1.914909999999999890e+00 7.328070000000000306e+00 1.548329999999999984e+00 4.564329999999999998e+00 3.039369999999999905e+00 1.691840000000000011e+00 4.610909999999999620e+00 7.354820000000000135e+00 6.534849999999999604e+00 7.528859999999999886e+00 3.053040000000000198e+00 6.559319999999999595e+00 7.439610000000000056e+00 7.288540000000000241e+00
1.604039999999999910e+00 8.370800000000000463e-01 3.135889999999999844e+00 1.607120000000000104e+00 9.723500000000000476e-01 7.546000000000000263e+00 6.607529999999999681e+00 3.689950000000000063e+00 3.182020000000000071e+00 6.494349999999999845e+00 3.775640000000000107e+00 7.374130000000000074e+00 5.011160000000000281e+00 6.828529999999999767e+00 3.197760000000000158e+00 4.956809999999999938e+00 6.733069999999999666e+00 7.343429999999999680e+00 4.964229999999999698e+00 8.982299999999999729e-01 3.273639999999999883e+00 4.833759999999999835e+00 1.069180000000000019e+00 7.378359999999999808e+00 3.084700000000000220e+00 3.601900000000000102e+00 3.272269999999999790e+00 3.189369999999999816e+00 3.833899999999999864e+00 7.315629999999999633e+00 1.734769999999999923e+00 6.603589999999999627e+00 3.287249999999999783e+00 1.745659999999999989e+00 6.730929999999999858e+00 7.299059999999999881e+00 6.655079999999999885e+00 1.867029999999999967e+00 1.213249999999999940e+00 6.494670000000000165e+00 1.906490000000000018e+00 5.248990000000000045e+00 5.053569999999999673e+00 4.753029999999999866e+00 9.714000000000000412e-01 4.794439999999999813e+00 4.792810000000000237e+00 5.492709999999999759e+00 3.475729999999999986e+00 7.531769999999999854e+00 1.191999999999999948e+00 3.361169999999999991e+00 7.710110000000000241e+00 5.265670000000000073e+00 3.369099999999999984e+00 1.920479999999999965e+00 1.101869999999999905e+00 3.222700000000000120e+00 1.783400000000000096e+00 5.288940000000000197e+00 1.575090000000000101e+00 4.800290000000000390e+00 9.584799999999999986e-01 1.642730000000000024e+00 4.714349999999999596e+00 5.378099999999999881e+00 6.717150000000000176e+00 7.657729999999999926e+00 1.071970000000000089e+00 6.644230000000000302e+00 7.706470000000000375e+00 5.391879999999999562e+00 1.651359999999999939e+00 8.337400000000000366e-01 1.165240000000000054e+00 1.567760000000000042e+00 9.501800000000000246e-01 5.162349999999999994e+00 6.532919999999999838e+00 3.778399999999999981e+00 1.203619999999999912e+00 6.395439999999999792e+00 3.826890000000000125e+00 5.236869999999999692e+00 5.061919999999999753e+00 6.655000000000000249e+00 1.340659999999999963e+00 5.035879999999999690e+00 6.625219999999999665e+00 5.105550000000000033e+00 4.951730000000000409e+00 9.026800000000000379e-01 1.138859999999999983e+00 4.731279999999999930e+00 9.305700000000000083e-01 5.301639999999999908e+00 3.420310000000000183e+00 3.947839999999999794e+00 1.319809999999999928e+00 3.280110000000000081e+00 3.757109999999999950e+00 5.238299999999999734e+00 1.823569999999999913e+00 6.651489999999999903e+00 7.859300000000000175e-01 1.604430000000000023e+00 6.659419999999999895e+00 5.309420000000000250e+00 6.538800000000000168e+00 1.914290000000000047e+00 3.168979999999999908e+00 6.505829999999999558e+00 1.914570000000000105e+00 7.316989999999999661e+00 4.927550000000000097e+00 4.729969999999999786e+00 7.450199999999999712e+00 3.315859999999999808e+00 7.504920000000000258e+00 3.229340000000000099e+00 3.387290000000000134e+00 7.687649999999999650e+00 7.221960000000000157e+00 3.145290000000000141e+00 1.818999999999999950e+00 3.211720000000000130e+00 3.300990000000000091e+00 1.945899999999999963e+00 7.459039999999999893e+00 1.664579999999999949e+00 4.730319999999999858e+00 3.311939999999999884e+00 1.686360000000000081e+00 4.790259999999999962e+00 7.380020000000000024e+00 6.688360000000000305e+00 7.613599999999999923e+00 3.242170000000000218e+00 6.491259999999999586e+00 7.690190000000000303e+00 7.349840000000000373e+00
1.758680000000000021e+00 9.770499999999999741e-01 3.181719999999999882e+00 1.407729999999999926e+00 1.002739999999999965e+00 7.529720000000000191e+00 6.602809999999999846e+00 3.530219999999999914e+00 3.067670000000000119e+00 6.320170000000000066e+00 3.756130000000000191e+00 7.432299999999999685e+00 4.945420000000000371e+00 6.964260000000000339e+00 3.199739999999999807e+00 4.916299999999999670e+00 6.895789999999999864e+00 7.333479999999999777e+00 4.787099999999999689e+00 9.250399999999999734e-01 3.067670000000000119e+00 4.601950000000000429e+00 1.009570000000000078e+00 7.448739999999999917e+00 3.216479999999999784e+00 4.110710000000000086e+00 3.250230000000000175e+00 3.261569999999999858e+00 3.880720000000000169e+00 7.546929999999999694e+00 1.645899999999999919e+00 6.795790000000000219e+00 3.408710000000000129e+00 1.678180000000000005e+00 6.755020000000000024e+00 7.479519999999999946e+00 6.494390000000000107e+00 1.900090000000000057e+00 1.034899999999999931e+00 6.410210000000000186e+00 1.820210000000000106e+00 5.326640000000000263e+00 5.083090000000000330e+00 5.048619999999999663e+00 1.159019999999999939e+00 5.003239999999999910e+00 4.777790000000000425e+00 5.540280000000000094e+00 3.503060000000000063e+00 7.749539999999999651e+00 9.972800000000000553e-01 3.367220000000000102e+00 7.791619999999999990e+00 5.293859999999999566e+00 3.468679999999999986e+00 2.184740000000000126e+00 1.187959999999999905e+00 3.248749999999999805e+00 1.997859999999999969e+00 5.221300000000000274e+00 1.649380000000000068e+00 4.871240000000000236e+00 1.092300000000000049e+00 1.535400000000000098e+00 4.771270000000000344e+00 5.504760000000000097e+00 6.864440000000000097e+00 7.665339999999999598e+00 1.021190000000000042e+00 6.693539999999999601e+00 7.590679999999999872e+00 5.407140000000000057e+00 1.581290000000000084e+00 9.526000000000000023e-01 1.140179999999999971e+00 1.667559999999999931e+00 9.798900000000000388e-01 5.042410000000000281e+00 6.420770000000000088e+00 3.689470000000000027e+00 9.881400000000000183e-01 6.419819999999999638e+00 3.682339999999999947e+00 4.927170000000000272e+00 5.209240000000000315e+00 6.907610000000000028e+00 1.252410000000000023e+00 5.167049999999999699e+00 6.616609999999999658e+00 5.142249999999999766e+00 4.899210000000000065e+00 8.968500000000000361e-01 1.064100000000000046e+00 4.759800000000000253e+00 8.498700000000000143e-01 5.184459999999999624e+00 3.476799999999999891e+00 4.135710000000000441e+00 1.411319999999999908e+00 3.381159999999999943e+00 3.792149999999999910e+00 5.140500000000000291e+00 1.853690000000000060e+00 6.711240000000000094e+00 8.183000000000000274e-01 1.771679999999999922e+00 6.562599999999999767e+00 5.317569999999999908e+00 6.552590000000000359e+00 1.725659999999999972e+00 3.048360000000000181e+00 6.350509999999999877e+00 1.787300000000000111e+00 7.290269999999999584e+00 4.720699999999999896e+00 5.084880000000000067e+00 7.543319999999999581e+00 3.280260000000000176e+00 7.555119999999999614e+00 3.286750000000000060e+00 3.246770000000000156e+00 7.781399999999999650e+00 7.372429999999999595e+00 3.208810000000000162e+00 2.079000000000000181e+00 3.160169999999999924e+00 3.091380000000000017e+00 2.056939999999999991e+00 7.823269999999999946e+00 1.456460000000000088e+00 4.804739999999999789e+00 3.218360000000000110e+00 1.529919999999999947e+00 4.567630000000000301e+00 7.419369999999999798e+00 6.653179999999999872e+00 7.656959999999999766e+00 3.231050000000000200e+00 6.557290000000000063e+00 7.811379999999999768e+00 7.532490000000000130e+00
1.520750000000000046e+00 7.475699999999999568e-01 4.077829999999999622e+00 1.577569999999999917e+00 9.148500000000000520e-01 8.862180000000000391e+00 6.739650000000000141e+00 3.526100000000000012e+00 4.050060000000000215e+00 6.227879999999999860e+00 3.971130000000000049e+00 8.881140000000000256e+00 4.864790000000000170e+00 6.284709999999999575e+00 3.953100000000000058e+00 4.577139999999999986e+00 6.547950000000000159e+00 8.788809999999999789e+00 4.572600000000000442e+00 9.213500000000000023e-01 3.953809999999999825e+00 4.772210000000000285e+00 1.020240000000000036e+00 8.789799999999999613e+00 2.482930000000000081e+00 3.438509999999999955e+00 4.071010000000000240e+00 3.315990000000000215e+00 3.757050000000000001e+00 8.797810000000000130e+00 1.567180000000000017e+00 6.454139999999999766e+00 3.978520000000000056e+00 1.617690000000000072e+00 6.505539999999999878e+00 8.848580000000000112e+00 6.244060000000000166e+00 1.822019999999999973e+00 1.677489999999999926e+00 6.311040000000000205e+00 1.895259999999999945e+00 6.244270000000000209e+00 5.002670000000000172e+00 4.736159999999999926e+00 1.271220000000000017e+00 4.683930000000000149e+00 4.538710000000000022e+00 6.271259999999999835e+00 3.368689999999999962e+00 7.396239999999999704e+00 1.508829999999999893e+00 3.069370000000000154e+00 7.353110000000000035e+00 6.469570000000000043e+00 3.216899999999999871e+00 1.816869999999999985e+00 1.676360000000000072e+00 3.094370000000000065e+00 1.786410000000000053e+00 6.447180000000000355e+00 1.557730000000000059e+00 4.548899999999999721e+00 1.522270000000000012e+00 1.574850000000000083e+00 4.619460000000000122e+00 6.586439999999999628e+00 6.443789999999999907e+00 7.384000000000000341e+00 1.582740000000000036e+00 6.289380000000000415e+00 7.425629999999999953e+00 6.400229999999999642e+00 1.506410000000000027e+00 9.911699999999999955e-01 1.333290000000000086e+00 1.587059999999999915e+00 8.332100000000000062e-01 5.899790000000000312e+00 6.446839999999999904e+00 3.671419999999999906e+00 1.010299999999999976e+00 6.393189999999999706e+00 3.751939999999999831e+00 6.112739999999999618e+00 4.923359999999999737e+00 6.612989999999999924e+00 1.010129999999999972e+00 4.614709999999999646e+00 6.286819999999999631e+00 5.781019999999999825e+00 4.836689999999999934e+00 9.070899999999999519e-01 1.088819999999999899e+00 4.692750000000000199e+00 9.686200000000000365e-01 5.937909999999999577e+00 3.368079999999999963e+00 3.585550000000000015e+00 1.066599999999999993e+00 3.205890000000000128e+00 3.834229999999999805e+00 5.866640000000000299e+00 1.688630000000000075e+00 6.276740000000000208e+00 9.356100000000000527e-01 1.512539999999999996e+00 6.423090000000000188e+00 5.804459999999999731e+00 6.216289999999999871e+00 1.757609999999999895e+00 3.675930000000000142e+00 6.314930000000000376e+00 1.908930000000000016e+00 8.229729999999999990e+00 4.788120000000000154e+00 4.796170000000000044e+00 8.354469999999999175e+00 3.169869999999999965e+00 7.316189999999999749e+00 3.540039999999999853e+00 3.193309999999999871e+00 7.429479999999999862e+00 8.292899999999999494e+00 3.002730000000000121e+00 1.818689999999999918e+00 3.506920000000000037e+00 3.262519999999999865e+00 1.860759999999999970e+00 8.253009999999999735e+00 1.520969999999999933e+00 4.690279999999999561e+00 3.330410000000000093e+00 1.761770000000000058e+00 4.694790000000000241e+00 8.377420000000000755e+00 6.287320000000000242e+00 7.192650000000000432e+00 3.384770000000000056e+00 6.410560000000000258e+00 7.525820000000000398e+00 8.200989999999999114e+00
1.558680000000000065e+00 8.976600000000000135e-01 3.200050000000000061e+00 1.597679999999999989e+00 1.134970000000000034e+00 7.481239999999999668e+00 6.541059999999999874e+00 3.714920000000000222e+00 3.255720000000000169e+00 6.520199999999999996e+00 3.952939999999999898e+00 7.452499999999999680e+00 4.873929999999999652e+00 7.014899999999999913e+00 3.223889999999999922e+00 4.919950000000000045e+00 6.874360000000000248e+00 7.378160000000000274e+00 4.966619999999999813e+00 9.734800000000000120e-01 3.199079999999999924e+00 4.883849999999999802e+00 1.028080000000000105e+00 7.262590000000000323e+00 3.020109999999999850e+00 3.615730000000000111e+00 2.946870000000000100e+00 3.068049999999999944e+00 3.870730000000000004e+00 7.362980000000000302e+00 1.590829999999999966e+00 6.742589999999999861e+00 3.142599999999999838e+00 1.654959999999999987e+00 6.597249999999999837e+00 7.645199999999999996e+00 6.542539999999999800e+00 1.791039999999999965e+00 1.023309999999999942e+00 6.535899999999999821e+00 1.992850000000000010e+00 5.254679999999999573e+00 4.831360000000000099e+00 4.702460000000000306e+00 8.438700000000000090e-01 4.916549999999999976e+00 4.773789999999999978e+00 5.337489999999999846e+00 3.116690000000000182e+00 7.707569999999999588e+00 1.058789999999999898e+00 3.292380000000000084e+00 7.864810000000000301e+00 5.497049999999999770e+00 3.343510000000000204e+00 1.936280000000000001e+00 1.119350000000000067e+00 3.266249999999999876e+00 1.988289999999999891e+00 5.303860000000000241e+00 1.523269999999999902e+00 4.800049999999999706e+00 1.184050000000000047e+00 1.504299999999999971e+00 4.853889999999999816e+00 5.277370000000000339e+00 6.425159999999999982e+00 7.626290000000000013e+00 9.607999999999999874e-01 6.653640000000000221e+00 7.739489999999999981e+00 5.352549999999999919e+00 1.715529999999999999e+00 1.008659999999999890e+00 1.046610000000000040e+00 1.631809999999999983e+00 1.187699999999999978e+00 5.475419999999999732e+00 6.494419999999999860e+00 3.814220000000000166e+00 1.230509999999999993e+00 6.484799999999999898e+00 3.867960000000000065e+00 5.276989999999999625e+00 4.723889999999999922e+00 6.541150000000000020e+00 1.182390000000000052e+00 5.019999999999999574e+00 6.651799999999999713e+00 5.237449999999999939e+00 4.949880000000000280e+00 9.319800000000000306e-01 9.294999999999999929e-01 4.902230000000000310e+00 1.048140000000000072e+00 5.201270000000000060e+00 3.278779999999999806e+00 3.725909999999999833e+00 1.088859999999999939e+00 3.223250000000000171e+00 3.956189999999999873e+00 5.210130000000000372e+00 1.419640000000000013e+00 6.704570000000000363e+00 9.572599999999999998e-01 1.661010000000000097e+00 6.820500000000000007e+00 5.381009999999999849e+00 6.435719999999999885e+00 1.959089999999999998e+00 3.268120000000000136e+00 6.571310000000000429e+00 2.080769999999999786e+00 7.411620000000000097e+00 4.858999999999999986e+00 4.862770000000000259e+00 7.416619999999999990e+00 3.197379999999999889e+00 7.556149999999999700e+00 3.299329999999999874e+00 3.324520000000000142e+00 7.648410000000000153e+00 7.623269999999999769e+00 3.259269999999999889e+00 1.754410000000000025e+00 3.207349999999999923e+00 3.413730000000000153e+00 2.023960000000000203e+00 7.420910000000000117e+00 1.596589999999999954e+00 4.774680000000000035e+00 3.268269999999999786e+00 1.530839999999999979e+00 4.856830000000000425e+00 7.408520000000000216e+00 6.500750000000000028e+00 7.669109999999999872e+00 3.163069999999999826e+00 6.536229999999999762e+00 7.756499999999999950e+00 7.640950000000000131e+00
1.574989999999999890e+00 8.743400000000000061e-01 3.240670000000000162e+00 1.521900000000000031e+00 8.612100000000000311e-01 7.434639999999999915e+00 6.311079999999999579e+00 3.640620000000000189e+00 3.048500000000000210e+00 6.289860000000000007e+00 3.625249999999999861e+00 7.453170000000000073e+00 4.763899999999999579e+00 6.457169999999999632e+00 3.143650000000000055e+00 4.725559999999999761e+00 6.286859999999999893e+00 7.367149999999999643e+00 4.727260000000000240e+00 8.296099999999999586e-01 3.157280000000000086e+00 4.561209999999999987e+00 7.809899999999999620e-01 7.572680000000000078e+00 3.039379999999999971e+00 3.644600000000000062e+00 3.150570000000000093e+00 3.037859999999999783e+00 3.734129999999999949e+00 7.547349999999999781e+00 1.614030000000000076e+00 6.508969999999999700e+00 3.468939999999999912e+00 1.564389999999999947e+00 6.511759999999999771e+00 7.289159999999999862e+00 6.217469999999999608e+00 1.808079999999999909e+00 9.922299999999999454e-01 6.266079999999999650e+00 1.830480000000000107e+00 5.380709999999999660e+00 4.745300000000000296e+00 4.646519999999999762e+00 8.450600000000000334e-01 4.846899999999999764e+00 4.502989999999999604e+00 5.397680000000000256e+00 3.266270000000000007e+00 7.344159999999999577e+00 1.141310000000000047e+00 3.232660000000000089e+00 7.424290000000000056e+00 5.312439999999999607e+00 3.178690000000000015e+00 1.741409999999999902e+00 1.135010000000000074e+00 3.150430000000000064e+00 1.850119999999999987e+00 5.507640000000000313e+00 1.494059999999999944e+00 4.713210000000000122e+00 1.231409999999999894e+00 1.598519999999999941e+00 4.508869999999999933e+00 5.397050000000000125e+00 6.470439999999999969e+00 7.358850000000000335e+00 1.222339999999999982e+00 6.312850000000000072e+00 7.283640000000000114e+00 5.344780000000000086e+00 1.405810000000000004e+00 9.622800000000000242e-01 9.542100000000000026e-01 1.680830000000000046e+00 9.699900000000000189e-01 5.196119999999999628e+00 6.178040000000000198e+00 3.887859999999999872e+00 1.242699999999999916e+00 6.390369999999999884e+00 3.579909999999999926e+00 5.070190000000000197e+00 4.696480000000000210e+00 6.406629999999999825e+00 1.177340000000000053e+00 4.622569999999999624e+00 6.325630000000000308e+00 5.133639999999999759e+00 4.793859999999999566e+00 8.422600000000000087e-01 9.239699999999999580e-01 4.542150000000000354e+00 7.786100000000000243e-01 5.331789999999999807e+00 3.106759999999999966e+00 3.619380000000000042e+00 1.265149999999999997e+00 3.288149999999999906e+00 3.656779999999999919e+00 5.084279999999999688e+00 1.639790000000000081e+00 6.513889999999999958e+00 8.828300000000000036e-01 1.784340000000000037e+00 6.426910000000000345e+00 5.282519999999999882e+00 6.432549999999999990e+00 1.872440000000000104e+00 3.320170000000000066e+00 6.317129999999999690e+00 1.947289999999999965e+00 7.343689999999999607e+00 4.606320000000000192e+00 4.449230000000000018e+00 7.516869999999999941e+00 3.196820000000000217e+00 7.328420000000000378e+00 3.179349999999999898e+00 3.174139999999999961e+00 7.400540000000000340e+00 7.610109999999999708e+00 3.174350000000000005e+00 1.904849999999999932e+00 3.021970000000000045e+00 3.053020000000000067e+00 1.814959999999999907e+00 7.426379999999999981e+00 1.476410000000000000e+00 4.702099999999999724e+00 3.199089999999999989e+00 1.389100000000000001e+00 4.589480000000000004e+00 7.352299999999999613e+00 6.386099999999999888e+00 7.347699999999999676e+00 3.161070000000000046e+00 6.319189999999999863e+00 7.217279999999999696e+00 7.146349999999999980e+00
1.724189999999999889e+00 1.070789999999999909e+00 3.224950000000000205e+00 1.704870000000000108e+00 9.941999999999999726e-01 7.091510000000000424e+00 6.010989999999999611e+00 3.583260000000000112e+00 3.241760000000000197e+00 6.215519999999999712e+00 3.668789999999999996e+00 7.153220000000000134e+00 4.654390000000000249e+00 6.802620000000000111e+00 3.128099999999999881e+00 4.575779999999999959e+00 6.508939999999999948e+00 7.109090000000000131e+00 4.769599999999999618e+00 1.003030000000000088e+00 3.187019999999999964e+00 4.749570000000000292e+00 1.018979999999999997e+00 7.254730000000000345e+00 2.908490000000000020e+00 3.687580000000000080e+00 3.048620000000000108e+00 3.117609999999999992e+00 3.860129999999999839e+00 7.248230000000000395e+00 1.343779999999999974e+00 6.541820000000000412e+00 2.912720000000000198e+00 1.367359999999999909e+00 6.409010000000000318e+00 7.216339999999999755e+00 6.275159999999999627e+00 1.723249999999999948e+00 1.030640000000000001e+00 6.347209999999999575e+00 1.806300000000000017e+00 5.183220000000000383e+00 4.757889999999999731e+00 4.717789999999999928e+00 8.603699999999999681e-01 4.730430000000000135e+00 4.768010000000000304e+00 5.262159999999999727e+00 3.022079999999999878e+00 7.439549999999999663e+00 1.009570000000000078e+00 2.955470000000000041e+00 7.453229999999999578e+00 5.065789999999999793e+00 3.125080000000000080e+00 1.932269999999999932e+00 1.064599999999999991e+00 3.251219999999999999e+00 1.975049999999999972e+00 5.255639999999999645e+00 1.397699999999999942e+00 4.543050000000000033e+00 1.155049999999999910e+00 1.553350000000000009e+00 4.625840000000000174e+00 5.047159999999999869e+00 6.235140000000000349e+00 7.561930000000000263e+00 8.505800000000000027e-01 6.342089999999999783e+00 7.537720000000000198e+00 5.254620000000000068e+00 1.688020000000000076e+00 9.542599999999999971e-01 1.012790000000000079e+00 1.624889999999999946e+00 1.110659999999999981e+00 5.227850000000000108e+00 6.207849999999999646e+00 3.640639999999999876e+00 1.201109999999999900e+00 6.276309999999999611e+00 3.678920000000000190e+00 5.038979999999999571e+00 4.633869999999999933e+00 6.552559999999999718e+00 1.082270000000000065e+00 4.686209999999999987e+00 6.544330000000000425e+00 5.114609999999999879e+00 4.668149999999999800e+00 1.042399999999999993e+00 1.129610000000000003e+00 4.728620000000000267e+00 9.767000000000000126e-01 5.417049999999999699e+00 3.147959999999999869e+00 3.829819999999999780e+00 1.179319999999999924e+00 3.212169999999999970e+00 3.820580000000000087e+00 4.964870000000000339e+00 1.440839999999999899e+00 6.349750000000000227e+00 9.575399999999999467e-01 1.381119999999999903e+00 6.516750000000000043e+00 5.117070000000000007e+00 6.466619999999999813e+00 1.778489999999999904e+00 3.182329999999999881e+00 6.367969999999999686e+00 1.805660000000000043e+00 7.121749999999999581e+00 4.765259999999999607e+00 4.666520000000000223e+00 7.214409999999999989e+00 2.881009999999999849e+00 7.401860000000000106e+00 3.039839999999999876e+00 2.870499999999999829e+00 7.390270000000000117e+00 7.152400000000000091e+00 3.297299999999999898e+00 1.849690000000000056e+00 3.200309999999999988e+00 3.146209999999999951e+00 2.131419999999999870e+00 7.087850000000000428e+00 1.260729999999999906e+00 4.609680000000000000e+00 3.003829999999999778e+00 1.441429999999999989e+00 4.619320000000000093e+00 7.109519999999999840e+00 6.144140000000000157e+00 7.510089999999999932e+00 2.942149999999999821e+00 6.219669999999999810e+00 7.377539999999999765e+00 7.272739999999999760e+00