5.997772022999999564e+00 0.000000000000000000e+00 0.000000000000000000e+00 4.630763994999999689e+00 7.892787196999999644e+00 0.000000000000000000e+00 4.719898130999999886e+00 2.672041393000000209e+00 7.548741580999999812e+00
6.192883175999999601e+00 0.000000000000000000e+00 0.000000000000000000e+00 -1.741588493000000071e+00 8.023527198000000027e+00 0.000000000000000000e+00 -1.762318979000000008e+00 2.819011056999999987e+00 7.529975691999999832e+00
5.997772022999999564e+00 0.000000000000000000e+00 0.000000000000000000e+00 4.630763994999999689e+00 7.892787196999999644e+00 0.000000000000000000e+00 4.719898130999999886e+00 2.672041393000000209e+00 7.548741580999999812e+00
6.063374398999999748e+00 0.000000000000000000e+00 0.000000000000000000e+00 4.648002777000000307e+00 7.947500866000000386e+00 0.000000000000000000e+00 4.722439644999999686e+00 2.699565691000000101e+00 7.588758555000000072e+00
6.161917191999999766e+00 0.000000000000000000e+00 0.000000000000000000e+00 -1.603240535000000078e+00 7.918594065999999820e+00 0.000000000000000000e+00 -1.605277953999999951e+00 2.637586853999999814e+00 7.509118160999999958e+00
6.155811685999999838e+00 0.000000000000000000e+00 0.000000000000000000e+00 -1.491513641000000057e+00 8.122186549000000255e+00 0.000000000000000000e+00 -1.549625178000000103e+00 2.650470882000000028e+00 7.561562967000000413e+00
6.184271996999999743e+00 0.000000000000000000e+00 0.000000000000000000e+00 -1.713022355999999968e+00 7.808992316000000322e+00 0.000000000000000000e+00 -1.554656647999999919e+00 2.617535784000000199e+00 7.537227739000000426e+00
6.192130515999999751e+00 0.000000000000000000e+00 0.000000000000000000e+00 -1.698520433999999968e+00 8.068805128999999354e+00 0.000000000000000000e+00 -1.707957036000000040e+00 2.642423988000000001e+00 7.443486366000000132e+00
6.091153101999999819e+00 0.000000000000000000e+00 0.000000000000000000e+00 -1.377477977999999936e+00 7.852948727000000240e+00 0.000000000000000000e+00 -1.407720196000000090e+00 2.581808338000000091e+00 7.582817301999999593e+00
6.125837339000000270e+00 0.000000000000000000e+00 0.000000000000000000e+00 4.676250163999999820e+00 7.986556458999999997e+00 0.000000000000000000e+00 4.748399781999999902e+00 2.722732854000000202e+00 7.636423118999999815e+00
6.361373193999999565e+00 0.000000000000000000e+00 0.000000000000000000e+00 -1.466022461000000110e+00 8.228468978000000433e+00 0.000000000000000000e+00 -1.472999442000000103e+00 2.714449731000000199e+00 7.657389425999999943e+00
5.997772022999999564e+00 0.000000000000000000e+00 0.000000000000000000e+00 4.630763994999999689e+00 7.892787196999999644e+00 0.000000000000000000e+00 4.719898130999999886e+00 2.672041393000000209e+00 7.548741580999999812e+00
6.051042566999999650e+00 0.000000000000000000e+00 0.000000000000000000e+00 4.648536434000000384e+00 7.922749087999999773e+00 0.000000000000000000e+00 4.718894886000000177e+00 2.695319167000000071e+00 7.543464592000000302e+00
6.188752158999999864e+00 0.000000000000000000e+00 0.000000000000000000e+00 -1.606001422000000067e+00 8.027046531999999956e+00 0.000000000000000000e+00 -1.601292986000000029e+00 2.649631341000000084e+00 7.593542997000000128e+00
6.163633522999999670e+00 0.000000000000000000e+00 0.000000000000000000e+00 -1.430848504999999937e+00 7.895046004000000117e+00 0.000000000000000000e+00 -1.249888989000000006e+00 2.709316203000000201e+00 7.578509922000000287e+00
6.087846769000000435e+00 0.000000000000000000e+00 0.000000000000000000e+00 -1.545395045000000023e+00 7.936912697000000350e+00 0.000000000000000000e+00 -1.731588656000000004e+00 2.678466738000000014e+00 7.558255124999999630e+00
6.177660423999999928e+00 0.000000000000000000e+00 0.000000000000000000e+00 -1.624630041000000080e+00 8.120444771000000728e+00 0.000000000000000000e+00 -1.599682926000000061e+00 2.747158123000000174e+00 7.481094599000000400e+00
6.167219635000000366e+00 0.000000000000000000e+00 0.000000000000000000e+00 -1.577215457000000098e+00 8.076598565999999479e+00 0.000000000000000000e+00 -1.517530497999999950e+00 2.633228846999999817e+00 7.566811230999999971e+00
6.055295251999999628e+00 0.000000000000000000e+00 0.000000000000000000e+00 -1.577369041999999943e+00 7.966012081999999772e+00 0.000000000000000000e+00 -1.638802606000000051e+00 2.576059308000000048e+00 7.433250937999999586e+00
6.263033371999999765e+00 0.000000000000000000e+00 0.000000000000000000e+00 -1.783927539000000007e+00 8.082679711000000822e+00 0.000000000000000000e+00 -1.934758578999999923e+00 2.830917593000000121e+00 7.625791439000000338e+00
6.136630045999999616e+00 0.000000000000000000e+00 0.000000000000000000e+00 -1.504572119000000097e+00 8.050798373999999313e+00 0.000000000000000000e+00 -1.502051752000000073e+00 2.651017283999999918e+00 7.553605012000000229e+00
6.160141917999999883e+00 0.000000000000000000e+00 0.000000000000000000e+00 -1.505894604000000081e+00 7.995876602000000055e+00 0.000000000000000000e+00 -1.449977773000000081e+00 2.639534815000000201e+00 7.570766480999999715e+00
6.121246025999999674e+00 0.000000000000000000e+00 0.000000000000000000e+00 -1.456569680000000089e+00 8.062468229000000264e+00 0.000000000000000000e+00 -1.513384274999999946e+00 2.700671821999999889e+00 7.441182929000000001e+00
6.157312790999999841e+00 0.000000000000000000e+00 0.000000000000000000e+00 -1.559199109999999999e+00 7.990741303000000073e+00 0.000000000000000000e+00 -1.516300806999999917e+00 2.626532598999999912e+00 7.617655638999999645e+00
6.101718113999999638e+00 0.000000000000000000e+00 0.000000000000000000e+00 -1.451687162000000031e+00 7.993125724999999626e+00 0.000000000000000000e+00 -1.506334830999999985e+00 2.626614379999999915e+00 7.463828674000000163e+00
6.167505794000000208e+00 0.000000000000000000e+00 0.000000000000000000e+00 -1.487198062999999904e+00 8.079709309000000061e+00 0.000000000000000000e+00 -1.409379517000000082e+00 2.705477928000000087e+00 7.731075708999999740e+00
6.118392492999999988e+00 0.000000000000000000e+00 0.000000000000000000e+00 -1.407012278000000061e+00 8.016208825999999732e+00 0.000000000000000000e+00 -1.554457806999999914e+00 2.819323207000000053e+00 7.499439269999999880e+00
6.177889727000000164e+00 0.000000000000000000e+00 0.000000000000000000e+00 -1.719567316000000012e+00 8.099173924000000468e+00 0.000000000000000000e+00 -1.537890801000000085e+00 2.568661308999999893e+00 7.638022859000000331e+00
6.068497535999999748e+00 0.000000000000000000e+00 0.000000000000000000e+00 -1.654667128000000043e+00 7.994249179999999733e+00 0.000000000000000000e+00 -1.824213813999999934e+00 2.699221960000000031e+00 7.511245525999999728e+00
6.145647192000000203e+00 0.000000000000000000e+00 0.000000000000000000e+00 -1.628591198999999934e+00 8.119203551000000019e+00 0.000000000000000000e+00 -1.520106396999999943e+00 2.602149169000000040e+00 7.527354697999999900e+00
6.038380778999999698e+00 0.000000000000000000e+00 0.000000000000000000e+00 4.646689362000000045e+00 7.918826564999999817e+00 0.000000000000000000e+00 4.730500726999999905e+00 2.687436067999999789e+00 7.575400558000000117e+00
6.183251928999999869e+00 0.000000000000000000e+00 0.000000000000000000e+00 -1.602609404000000071e+00 8.054242298000000133e+00 0.000000000000000000e+00 -1.596518939000000081e+00 2.616854904999999842e+00 7.576870992999999999e+00
6.153727693000000443e+00 0.000000000000000000e+00 0.000000000000000000e+00 -1.707360664999999944e+00 8.030408739000000296e+00 0.000000000000000000e+00 -1.876460811000000062e+00 2.742675606000000155e+00 7.536485199000000357e+00
6.133195620999999598e+00 0.000000000000000000e+00 0.000000000000000000e+00 -1.469053383000000101e+00 8.108006358000000802e+00 0.000000000000000000e+00 -1.778322605999999917e+00 2.786584030999999850e+00 7.574569657999999706e+00
6.102286735999999934e+00 0.000000000000000000e+00 0.000000000000000000e+00 -1.337601134000000025e+00 8.218410194000000502e+00 0.000000000000000000e+00 -1.487099960000000110e+00 2.638472737999999929e+00 7.452627944999999698e+00
6.212605779000000439e+00 0.000000000000000000e+00 0.000000000000000000e+00 -1.790684793999999913e+00 8.026041525000000121e+00 0.000000000000000000e+00 -2.003994633000000025e+00 2.821215068999999964e+00 7.564681947000000406e+00
6.228529140000000019e+00 0.000000000000000000e+00 0.000000000000000000e+00 -1.288663703000000105e+00 8.013437821000000127e+00 0.000000000000000000e+00 -1.348984321999999958e+00 2.664227302000000019e+00 7.576022323000000114e+00
6.245623903000000254e+00 0.000000000000000000e+00 0.000000000000000000e+00 -1.460627624000000013e+00 7.947963066999999882e+00 0.000000000000000000e+00 -1.429407491999999946e+00 2.618172706999999821e+00 7.478399228999999870e+00
6.200532967000000006e+00 0.000000000000000000e+00 0.000000000000000000e+00 -1.557497920000000091e+00 8.049205432999999132e+00 0.000000000000000000e+00 -1.519788042000000061e+00 2.652885936000000111e+00 7.573895762000000254e+00
6.091434678999999797e+00 0.000000000000000000e+00 0.000000000000000000e+00 -1.640479043000000026e+00 8.038572623000000306e+00 0.000000000000000000e+00 -1.529608531999999910e+00 2.588128150999999821e+00 7.486574204000000066e+00
6.382620701999999646e+00 0.000000000000000000e+00 0.000000000000000000e+00 -1.445989769000000091e+00 8.240945187999999533e+00 0.000000000000000000e+00 -1.644399759999999988e+00 2.798487724000000121e+00 7.596842985000000326e+00
6.149096227000000248e+00 0.000000000000000000e+00 0.000000000000000000e+00 -1.469810902999999946e+00 8.071613965999999252e+00 0.000000000000000000e+00 -1.505963423000000079e+00 2.606965687999999837e+00 7.523271108000000318e+00
6.138637279000000113e+00 0.000000000000000000e+00 0.000000000000000000e+00 -1.493027909000000042e+00 7.992852606999999665e+00 0.000000000000000000e+00 -1.488981724000000062e+00 2.626634801999999880e+00 7.543660621999999982e+00
6.273684440000000251e+00 0.000000000000000000e+00 0.000000000000000000e+00 -1.717637800999999964e+00 8.250034132999999770e+00 0.000000000000000000e+00 -1.548634588999999950e+00 2.835101728999999793e+00 7.692099777000000138e+00
6.155480017000000359e+00 0.000000000000000000e+00 0.000000000000000000e+00 -1.536357216999999942e+00 8.007730390000000753e+00 0.000000000000000000e+00 -1.706459409000000038e+00 2.761535439000000203e+00 7.655730711000000355e+00
6.178221280999999898e+00 0.000000000000000000e+00 0.000000000000000000e+00 -1.775817581999999950e+00 7.967961059000000290e+00 0.000000000000000000e+00 -1.792250517999999904e+00 2.736978451000000145e+00 7.630403636999999684e+00
6.065369936999999823e+00 0.000000000000000000e+00 0.000000000000000000e+00 4.641086657999999865e+00 7.949545271999999940e+00 0.000000000000000000e+00 4.717831082000000009e+00 2.701197175999999978e+00 7.575389123999999974e+00
6.129890422999999977e+00 0.000000000000000000e+00 0.000000000000000000e+00 -1.567239486000000070e+00 8.067657262999999190e+00 0.000000000000000000e+00 -1.609946158000000072e+00 2.652593217000000170e+00 7.534874061000000012e+00
6.163498238999999934e+00 0.000000000000000000e+00 0.000000000000000000e+00 -1.542945344000000052e+00 8.021732057999999554e+00 0.000000000000000000e+00 -1.463864233000000015e+00 2.605058371000000150e+00 7.604015707000000290e+00
6.130839114999999673e+00 0.000000000000000000e+00 0.000000000000000000e+00 -1.849267466999999998e+00 8.208770117000000255e+00 0.000000000000000000e+00 -1.752606547999999931e+00 2.596446068000000107e+00 7.581574692000000226e+00
