-4.122250000000000081e-01 9.992399999999999893e-02 5.138150000000000217e-01 -2.798089999999999744e-01 9.458400000000000141e-02 2.747850000000000015e-01 -3.802269999999999817e-01 8.203499999999999681e-02 5.116270000000000540e-01 -5.288359999999999728e-01 2.167570000000000052e-01 3.172639999999999905e-01 -9.716299999999999937e-02 -1.856649999999999967e-01 -4.379199999999999759e-01 -4.774899999999999978e-02 9.306999999999999301e-03 3.416680000000000272e-01 -4.129950000000000010e-01 4.218000000000000221e-02 3.373189999999999800e-01 -3.302200000000000135e-01 1.871019999999999905e-01 5.067620000000000458e-01 -3.800339999999999829e-01 2.832399999999999918e-01 9.115900000000000392e-02 -3.020990000000000064e-01 1.626839999999999953e-01 3.441330000000000222e-01 -5.474890000000000034e-01 1.583070000000000033e-01 2.066030000000000089e-01 -3.460570000000000035e-01 2.313099999999999878e-02 2.100069999999999992e-01 -2.976630000000000109e-01 3.766400000000000303e-02 5.335969999999999880e-01 -3.851649999999999796e-01 5.325210000000000221e-01 4.389120000000000243e-01 -5.693869999999999765e-01 2.295520000000000060e-01 1.162539999999999962e-01 -2.315419999999999978e-01 7.552999999999999992e-02 3.386750000000000038e-01 -3.764270000000000116e-01 -4.911299999999999694e-02 2.267730000000000024e-01 -3.936799999999999744e-01 1.466369999999999896e-01 2.815739999999999910e-01 -1.596559999999999924e-01 2.183319999999999983e-01 6.338960000000000150e-01 3.533310000000000062e-01 -6.625300000000000633e-02 -5.085720000000000240e-01 4.760750000000000259e-01 -1.351350000000000051e-01 -3.632750000000000146e-01 3.436350000000000238e-01 -3.089250000000000052e-01 -2.191170000000000062e-01 3.949500000000000233e-01 1.834300000000000166e-02 -4.361650000000000249e-01 6.397639999999999993e-01 -2.859559999999999880e-01 -5.269620000000000415e-01 4.007959999999999856e-01 -2.078530000000000100e-01 2.818160000000000109e-01 2.469639999999999891e-01 -1.692019999999999913e-01 -1.422249999999999903e-01 2.840409999999999879e-01 -1.040579999999999977e-01 -3.426319999999999921e-01 3.915950000000000264e-01 -1.520650000000000057e-01 -3.726970000000000005e-01 4.063149999999999817e-01 -1.549159999999999981e-01 -3.335060000000000247e-01 2.297879999999999923e-01 2.149280000000000079e-01 -3.112969999999999904e-01 3.338090000000000224e-01 -1.033980000000000038e-01 -2.628780000000000006e-01 5.233579999999999899e-01 -1.306650000000000034e-01 -2.541180000000000105e-01 -1.586130000000000040e-01 -1.284160000000000024e-01 -8.983750000000000346e-01 3.565169999999999728e-01 7.140499999999999625e-02 -3.334949999999999859e-01 3.789540000000000131e-01 -1.770529999999999882e-01 -3.289889999999999759e-01 4.407659999999999911e-01 -3.198449999999999904e-01 -3.483580000000000010e-01 4.363790000000000169e-01 -2.256450000000000122e-01 -8.605999999999999761e-02
-1.016135999999999928e+00 -9.126809999999999645e-01 7.905720000000000525e-01 1.245047999999999933e+00 1.797196000000000016e+00 3.723090000000000011e-01 6.821399999999999686e-01 -1.564130000000000020e+00 1.443014999999999937e+00 8.785999999999999366e-02 5.848950000000000538e-01 -3.844830000000000192e-01 1.108490999999999893e+00 3.323189999999999755e-01 -6.550909999999999789e-01 -2.541900000000000062e-02 6.696710000000000163e-01 8.959559999999999746e-01 5.077519999999999811e-01 -1.500563000000000091e+00 -5.124239999999999906e-01 -2.286341000000000179e+00 1.669812000000000074e+00 5.423580000000000068e-01 1.861758999999999942e+00 -2.188859999999999972e-01 5.627529999999999477e-01 1.348948000000000036e+00 3.932039999999999980e-01 1.421672000000000047e+00 -4.600960000000000050e-01 -2.743414000000000019e+00 -5.437579999999999636e-01 -1.021627999999999981e+00 -1.761820000000000053e-01 1.260491000000000028e+00 -1.037137999999999893e+00 1.231010000000000021e-01 -4.091520000000000157e-01 7.668800000000000061e-01 -1.115895000000000081e+00 1.525528999999999913e+00 1.178090000000000082e+00 1.657496999999999998e+00 -2.748360000000000247e-01 -7.707009999999999694e-01 5.097380000000000244e-01 8.191819999999999657e-01 1.697730000000000072e-01 1.366495000000000015e+00 3.910239999999999827e-01 -2.715336000000000194e+00 4.660259999999999958e-01 -3.007420000000000093e-01 -8.479210000000000358e-01 5.362099999999999644e-01 3.204130000000000034e-01 -1.730040999999999940e+00 -8.623220000000000329e-01 5.244539999999999758e-01 -8.435589999999999478e-01 -1.536237999999999992e+00 -1.422120000000000051e-01 -8.807800000000000074e-01 7.950110000000000232e-01 1.974410000000000054e-01 -1.569800000000000015e-02 9.662420000000000453e-01 -5.049479999999999524e-01 -1.811998999999999915e+00 -2.302979999999999805e+00 -1.004879000000000078e+00 5.900109999999999522e-01 6.570979999999999599e-01 6.027580000000000160e-01 5.438399999999999901e-01 2.063336000000000059e+00 -1.347922999999999982e+00 -1.365609999999999880e-01 1.143337999999999965e+00 3.386219999999999786e-01 -6.002690000000000525e-01 -1.828796000000000088e+00 6.625339999999999563e-01 1.107339999999999991e-01 -2.474089999999999900e+00 -1.322972999999999955e+00 1.727813999999999961e+00 7.944329999999999448e-01 -1.138274000000000008e+00 2.773579999999999934e-01 -1.158827000000000051e+00 9.697249999999999481e-01 5.061199999999999727e-02 -3.118779999999999886e-01 4.941500000000000059e-02 1.587347999999999981e+00 6.996189999999999909e-01 -7.461130000000000262e-01 -9.107260000000000355e-01 -2.804737999999999953e+00 -1.505236000000000018e+00 1.734979000000000049e+00 1.389871000000000079e+00 -2.107769999999999921e-01 1.255738999999999939e+00 9.947120000000000406e-01 -1.521598000000000006e+00 2.751739999999999742e-01 1.901794999999999902e+00 -1.164803000000000033e+00
-4.122250000000000081e-01 9.992399999999999893e-02 5.138150000000000217e-01 -2.798089999999999744e-01 9.458400000000000141e-02 2.747850000000000015e-01 -3.802269999999999817e-01 8.203499999999999681e-02 5.116270000000000540e-01 -5.288359999999999728e-01 2.167570000000000052e-01 3.172639999999999905e-01 -9.716299999999999937e-02 -1.856649999999999967e-01 -4.379199999999999759e-01 -4.774899999999999978e-02 9.306999999999999301e-03 3.416680000000000272e-01 -4.129950000000000010e-01 4.218000000000000221e-02 3.373189999999999800e-01 -3.302200000000000135e-01 1.871019999999999905e-01 5.067620000000000458e-01 -3.800339999999999829e-01 2.832399999999999918e-01 9.115900000000000392e-02 -3.020990000000000064e-01 1.626839999999999953e-01 3.441330000000000222e-01 -5.474890000000000034e-01 1.583070000000000033e-01 2.066030000000000089e-01 -3.460570000000000035e-01 2.313099999999999878e-02 2.100069999999999992e-01 -2.976630000000000109e-01 3.766400000000000303e-02 5.335969999999999880e-01 -3.851649999999999796e-01 5.325210000000000221e-01 4.389120000000000243e-01 -5.693869999999999765e-01 2.295520000000000060e-01 1.162539999999999962e-01 -2.315419999999999978e-01 7.552999999999999992e-02 3.386750000000000038e-01 -3.764270000000000116e-01 -4.911299999999999694e-02 2.267730000000000024e-01 -3.936799999999999744e-01 1.466369999999999896e-01 2.815739999999999910e-01 -1.596559999999999924e-01 2.183319999999999983e-01 6.338960000000000150e-01 3.533310000000000062e-01 -6.625300000000000633e-02 -5.085720000000000240e-01 4.760750000000000259e-01 -1.351350000000000051e-01 -3.632750000000000146e-01 3.436350000000000238e-01 -3.089250000000000052e-01 -2.191170000000000062e-01 3.949500000000000233e-01 1.834300000000000166e-02 -4.361650000000000249e-01 6.397639999999999993e-01 -2.859559999999999880e-01 -5.269620000000000415e-01 4.007959999999999856e-01 -2.078530000000000100e-01 2.818160000000000109e-01 2.469639999999999891e-01 -1.692019999999999913e-01 -1.422249999999999903e-01 2.840409999999999879e-01 -1.040579999999999977e-01 -3.426319999999999921e-01 3.915950000000000264e-01 -1.520650000000000057e-01 -3.726970000000000005e-01 4.063149999999999817e-01 -1.549159999999999981e-01 -3.335060000000000247e-01 2.297879999999999923e-01 2.149280000000000079e-01 -3.112969999999999904e-01 3.338090000000000224e-01 -1.033980000000000038e-01 -2.628780000000000006e-01 5.233579999999999899e-01 -1.306650000000000034e-01 -2.541180000000000105e-01 -1.586130000000000040e-01 -1.284160000000000024e-01 -8.983750000000000346e-01 3.565169999999999728e-01 7.140499999999999625e-02 -3.334949999999999859e-01 3.789540000000000131e-01 -1.770529999999999882e-01 -3.289889999999999759e-01 4.407659999999999911e-01 -3.198449999999999904e-01 -3.483580000000000010e-01 4.363790000000000169e-01 -2.256450000000000122e-01 -8.605999999999999761e-02
-1.050350000000000034e-01 2.407640000000000058e-01 -2.801649999999999974e-01 7.006130000000000413e-01 -4.056069999999999953e-01 3.545479999999999743e-01 -9.149500000000000410e-01 6.350100000000000189e-02 -8.120899999999999785e-01 -1.683800000000000019e-01 -4.919729999999999936e-01 -7.614239999999999897e-01 -7.609709999999999530e-01 9.212989999999999791e-01 -1.849278999999999895e+00 4.206320000000000059e-01 1.384620000000000017e-01 2.357049999999999979e-01 6.661200000000000454e-02 1.404423999999999895e+00 -7.882550000000000390e-01 5.826189999999999980e-01 2.949309999999999987e-01 -6.171440000000000259e-01 -3.367740000000000178e-01 -5.611580000000000457e-01 -1.005495999999999945e+00 8.199729999999999519e-01 4.200659999999999950e-01 -7.225960000000000161e-01 5.391740000000000421e-01 -8.831069999999999753e-01 -1.105901999999999941e+00 -2.544779999999999820e-01 -2.119240000000000013e-01 6.774499999999999966e-02 1.140249000000000068e+00 -3.451239999999999863e-01 -1.453052999999999928e+00 -4.745499999999999718e-02 -4.781360000000000054e-01 -4.160949999999999926e-01 9.355329999999999480e-01 -3.052989999999999871e-01 -4.495330000000000159e-01 4.249550000000000272e-01 -6.128510000000000346e-01 4.266030000000000100e-01 1.461079999999999879e-01 1.141445999999999961e+00 -5.400829999999999798e-01 1.159359999999999974e-01 -2.263769999999999949e-01 -4.920240000000000169e-01 1.817083999999999921e+00 -1.177208999999999950e+00 1.829596999999999918e+00 7.481940000000000257e-01 -9.310300000000000242e-01 -1.573300000000000046e-02 -1.562732999999999928e+00 1.519344999999999946e+00 -1.170012000000000052e+00 1.010856999999999895e+00 2.377231000000000094e+00 1.068073999999999968e+00 -6.679410000000000069e-01 -9.587679999999999536e-01 2.256599999999999995e-01 -1.017943999999999960e+00 -7.239449999999999497e-01 5.778109999999999635e-01 -2.804059999999999886e-01 -1.668536999999999937e+00 2.508650000000000047e-01 8.564060000000000006e-01 -3.059830000000000050e-01 4.857339999999999991e-01 -1.145515000000000061e+00 -6.545750000000000179e-01 1.452029999999999987e-01 9.217699999999999783e-01 -7.818400000000000349e-02 1.975665999999999922e+00 -1.247980000000000061e-01 8.196219999999999617e-01 1.687068999999999930e+00 -3.468100000000000072e-01 1.679283999999999999e+00 6.612430000000000252e-01 8.452690000000000481e-01 4.898489999999999789e-01 -6.957569999999999588e-01 -1.634889000000000037e+00 5.828149999999999720e-01 7.379759999999999653e-01 -3.290449999999999764e-01 -7.457049999999999512e-01 2.947366999999999848e+00 5.076009999999999689e-01 -8.710269999999999957e-01 -1.458369999999999944e-01 -9.918160000000000309e-01 1.321045999999999943e+00 5.133440000000000225e-01 -6.711709999999999621e-01 -3.630519999999999858e-01 -1.237489000000000061e+00 -1.238474999999999993e+00 -4.145130000000000203e-01 3.677590000000000026e-01
-2.368079999999999907e-01 1.015735000000000054e+00 -2.169306000000000179e+00 -4.099570000000000158e-01 -4.356829999999999870e-01 1.336503999999999914e+00 3.034999999999999851e-02 -5.900069999999999482e-01 1.283347999999999933e+00 1.244807999999999915e+00 -1.547840000000000049e-01 -7.584769999999999568e-01 -3.219575999999999993e+00 3.835319999999999840e+00 1.895737999999999923e+00 2.276837000000000000e+00 1.977519000000000027e+00 -3.013179999999999747e-01 -9.218100000000000183e-01 2.791923000000000155e+00 9.772009999999999863e-01 1.504213999999999940e+00 5.884709999999999663e-01 -1.317342999999999931e+00 -1.871464999999999934e+00 -3.562400000000000289e-02 -4.713800000000000212e-01 7.874100000000000543e-01 -1.289909999999999890e+00 2.912379999999999969e-01 5.770070000000000476e-01 5.256610000000000449e-01 1.314964999999999939e+00 1.096977000000000091e+00 -1.507967999999999975e+00 -1.637982000000000049e+00 3.511389999999999789e-01 -1.256591999999999931e+00 -1.012849000000000110e+00 -9.653040000000000509e-01 -1.336140000000000105e+00 1.663931000000000049e+00 4.739479999999999804e-01 1.253992999999999913e+00 1.853914000000000062e+00 1.119286000000000003e+00 8.976730000000000542e-01 -2.153166000000000135e+00 -3.811880000000000268e-01 -8.220399999999999929e-02 -2.520608999999999877e+00 9.500000000000000111e-02 1.338620000000000088e-01 2.491079999999999961e-01 3.028522000000000158e+00 -2.939315999999999818e+00 -5.056943000000000410e+00 1.053909999999999986e-01 -3.286089999999999844e-01 3.702369999999999828e-01 8.768900000000000305e-02 7.464199999999999724e-01 -5.476999999999999924e-02 -6.993209999999999704e-01 3.592480000000000118e-01 -1.035155999999999965e+00 -1.464153000000000038e+00 -1.350789000000000017e+00 2.823806999999999956e+00 -2.503661000000000136e+00 -1.228390000000000037e-01 4.854410000000000114e-01 -2.665903000000000134e+00 -1.869086999999999943e+00 1.943106000000000000e+00 1.453559000000000045e+00 -8.978500000000000369e-01 9.009169999999999678e-01 -1.549476000000000075e+00 3.720299999999999996e-02 -3.456009999999999915e-01 9.646489999999999787e-01 -1.399089999999999945e+00 9.596970000000000223e-01 -3.490999999999999659e-02 2.614219999999999877e-01 2.010533000000000126e+00 3.738940000000000041e-01 7.741900000000000448e-01 -1.025103000000000097e+00 -9.264649999999999830e-01 7.097799999999999665e-01 -3.089359999999999884e-01 -1.421078999999999981e+00 -1.004400000000000015e-01 -1.371401000000000092e+00 1.792145000000000099e+00 -1.704900000000000027e-01 -3.607310000000000239e-01 1.130934000000000106e+00 -1.390082999999999958e+00 -1.859388999999999958e+00 1.235699000000000103e+00 -6.097669999999999479e-01 -3.768670000000000075e-01 -1.982859999999999900e-01 1.247813999999999979e+00 2.025088000000000221e+00 -2.600959999999999939e-01 7.110379999999999479e-01 1.752555000000000085e+00
3.849330000000000251e-01 3.229900000000000132e-02 -1.966930000000000067e-01 -8.407799999999999718e-01 -4.496300000000000296e-02 -1.797500000000000139e-02 4.363719999999999821e-01 -1.776679999999999926e-01 9.482880000000000198e-01 -1.282330000000000136e-01 -3.981210000000000027e-01 4.098999999999999866e-02 -1.864669999999999939e-01 7.448970000000000313e-01 -6.611899999999999722e-02 2.776310000000000167e-01 -2.543449999999999878e-01 5.966569999999999929e-01 1.282830000000000081e-01 5.526950000000000474e-01 -7.276699999999999835e-02 2.001549999999999996e-01 -1.653500000000000109e-02 1.445329999999999948e-01 1.811389999999999945e-01 -4.142580000000000151e-01 1.291069999999999995e-01 2.337900000000000048e-02 -1.970240000000000047e-01 2.634600000000000136e-02 6.249430000000000263e-01 -6.415099999999999969e-02 1.573890000000000011e-01 1.153239999999999960e-01 2.535009999999999764e-01 1.719239999999999935e-01 -3.042019999999999724e-01 2.681250000000000022e-01 3.642100000000000198e-02 4.599249999999999727e-01 -6.318999999999999964e-03 1.911170000000000091e-01 -7.315999999999999587e-03 -2.871639999999999748e-01 6.970600000000000407e-02 2.062100000000000044e-02 -3.646639999999999882e-01 -2.073900000000000049e-02 -1.189560000000000062e-01 -1.586200000000000110e-02 -2.504999999999999848e-03 1.108729999999999993e-01 1.378070000000000128e-01 5.363470000000000182e-01 -9.675430000000000419e-01 -9.922840000000000549e-01 -4.127000000000000113e-02 1.431820000000000037e-01 -3.344659999999999855e-01 -2.993120000000000225e-01 -5.287800000000000139e-02 -4.414230000000000098e-01 -3.791359999999999730e-01 1.415279999999999871e-01 -1.281770000000000131e-01 -4.510900000000000326e-02 1.456629999999999869e-01 -3.065579999999999972e-01 -1.417339999999999989e-01 5.321179999999999799e-01 3.332780000000000187e-01 -3.546929999999999805e-01 5.315500000000000086e-02 1.245750000000000052e-01 1.579740000000000033e-01 -5.294480000000000297e-01 1.894419999999999993e-01 -6.484900000000000109e-01 1.527620000000000089e-01 6.672400000000000553e-01 -2.517550000000000066e-01 -7.587199999999999500e-02 1.039419000000000093e+00 -9.651300000000000157e-02 -6.203140000000000320e-01 2.096040000000000125e-01 -2.660879999999999912e-01 -2.428120000000000001e-01 -3.416640000000000232e-01 -1.386519999999999975e-01 -9.719200000000000061e-02 -6.180999999999999862e-03 1.572099999999999886e-01 8.593299999999999550e-02 2.685049999999999937e-01 -1.490759999999999863e-01 4.006330000000000169e-01 -4.218160000000000243e-01 6.603900000000000048e-02 -3.796260000000000190e-01 -3.589200000000000168e-01 1.134069999999999939e-01 3.921600000000000086e-02 1.540700000000000125e-01 -3.869099999999999762e-01 2.653099999999999903e-02 -3.174400000000000138e-02 -1.894710000000000005e-01 -1.326579999999999981e-01 6.288489999999999913e-01 2.215489999999999959e-01
-3.119560000000000111e-01 9.524129999999999541e-01 2.423116999999999965e+00 -1.137504999999999988e+00 2.318137999999999810e+00 -5.766259999999999719e-01 -5.157190000000000385e-01 -1.322534000000000098e+00 2.242349999999999899e-01 1.708220000000000072e+00 1.044661000000000062e+00 -6.899199999999999777e-02 -5.487060000000000271e-01 8.683999999999999497e-01 -2.209766999999999815e+00 -5.576050000000000173e-01 1.205454000000000025e+00 1.106497000000000064e+00 1.144450000000000051e-01 -2.948767000000000138e+00 6.259209999999999496e-01 -2.949246000000000034e+00 1.465297999999999989e+00 1.241330000000000044e+00 2.912202000000000179e+00 -6.970099999999999907e-02 9.272920000000000051e-01 2.689280000000000004e-01 8.900209999999999511e-01 -9.313200000000000367e-01 -2.559902000000000122e+00 -2.206377999999999950e+00 2.399999999999999790e-03 1.661486000000000018e+00 -1.011908999999999947e+00 2.426197999999999855e+00 3.356012000000000217e+00 1.378832000000000058e+00 -2.015226000000000184e+00 8.213629999999999542e-01 -2.486659999999999981e-01 1.360076999999999980e+00 -5.336610000000000520e-01 -6.824029999999999818e-01 -1.083479999999999999e+00 -6.394269999999999676e-01 2.765630000000000033e-01 1.726300000000000057e-01 1.738855000000000040e+00 5.583099999999999868e-02 2.274828999999999990e+00 -1.982970000000000010e-01 -1.358052000000000037e+00 -2.269991999999999788e+00 -1.539385000000000003e+00 1.781222000000000083e+00 1.044629000000000030e+00 3.249469999999999859e-01 -7.990739999999999510e-01 -2.926835000000000075e+00 -8.042799999999999949e-02 -9.496010000000000284e-01 -6.548709999999999809e-01 -3.588620000000000143e-01 -5.135760000000000325e-01 1.092912000000000106e+00 -1.914590000000000014e+00 -9.057589999999999808e-01 2.206465999999999816e+00 -3.732209999999999805e+00 -7.430909999999999460e-01 1.046389999999999959e-01 -2.958560000000000079e-01 6.265950000000000131e-01 3.574456000000000078e+00 1.853219999999999867e-01 -1.038940000000000002e-01 1.614414999999999933e+00 1.806379999999999930e-01 -4.667060000000000097e-01 -1.085102999999999929e+00 -1.068351000000000051e+00 1.144084000000000101e+00 -1.447160000000000002e+00 -4.249760000000000204e-01 -1.670671000000000017e+00 -2.401517000000000124e+00 1.993171999999999944e+00 1.240361999999999965e+00 1.448452000000000073e+00 4.510689999999999977e-01 -1.545315999999999912e+00 -5.615799999999999959e-02 -2.432555999999999941e+00 8.367369999999999530e-01 -1.957591999999999999e+00 5.698995000000000033e+00 -7.852320000000000411e-01 1.614422000000000024e+00 1.009279999999999955e+00 1.200511000000000106e+00 -2.854890000000000150e+00 4.300120000000000053e-01 1.293070000000000053e-01 1.821107000000000031e+00 3.259739999999999860e-01 -1.544076999999999922e+00 -3.527594999999999814e+00 -1.381682999999999995e+00 2.460977999999999888e+00 -1.238901000000000030e+00
7.739200000000000523e-01 -9.762499999999999512e-01 1.083400000000000057e-01 5.345900000000000096e-01 -1.297565000000000079e+00 -6.851819999999999578e-01 2.860416999999999987e+00 2.051203000000000110e+00 1.195608000000000004e+00 -2.160245000000000193e+00 8.441380000000000550e-01 4.191280000000000006e-01 -3.614330000000000043e-01 -1.715476000000000001e+00 1.305066999999999977e+00 3.151789999999999869e-01 1.380600999999999967e+00 4.739019999999999899e-01 7.889369999999999994e-01 1.446569999999999911e+00 -4.570429999999999771e-01 -2.259370999999999796e+00 4.359950000000000214e-01 3.116470000000000073e-01 -1.792923999999999962e+00 7.770920000000000050e-01 7.532290000000000374e-01 4.990760000000000196e-01 -1.985786999999999969e+00 9.573359999999999648e-01 -1.293420000000000014e+00 2.184820000000000095e-01 3.199730000000000074e-01 -1.480755999999999961e+00 7.752019999999999467e-01 -7.317369999999999708e-01 -1.973808999999999925e+00 1.806314999999999893e+00 -7.072310000000000541e-01 -9.039179999999999993e-01 -6.925240000000000284e-01 5.496419999999999639e-01 -1.320208000000000048e+00 1.005330999999999975e+00 1.596354999999999968e+00 7.778509999999999591e-01 -5.045239999999999725e-01 -2.330669999999999964e-01 -1.189370000000000011e-01 -1.549000000000000030e-02 -1.742996999999999908e+00 4.966380000000000239e-01 -2.251611000000000029e+00 1.465201999999999893e+00 -3.108400000000000052e-02 2.497510000000000008e-01 2.330629999999999924e-01 -1.427192000000000016e+00 3.875759999999999761e-01 -1.891963999999999979e+00 3.838889999999999803e-01 9.397579999999999822e-01 -6.638389999999999569e-01 -2.253350000000000186e+00 -5.211440000000000516e-01 1.991910000000000069e-01 1.094672000000000089e+00 -1.836324000000000067e+00 -1.488823000000000008e+00 1.367205999999999921e+00 -5.994350000000000511e-01 7.453429999999999778e-01 5.858919999999999684e-01 -2.050666000000000100e+00 -1.016991999999999896e+00 -1.192153000000000018e+00 2.745929999999999760e-01 -4.421490000000000142e-01 2.903609999999999802e-01 1.098468000000000000e+00 5.287629999999999830e-01 9.640560000000000240e-01 3.625979999999999759e-01 1.890830000000000011e-01 6.679070000000000285e-01 7.427890000000000326e-01 1.044332000000000038e+00 -1.430674999999999919e+00 2.525872000000000117e+00 -4.156059999999999754e-01 9.893910000000000204e-01 1.138648000000000104e+00 -1.186962000000000073e+00 2.968944000000000027e+00 -1.138373999999999997e+00 -2.977330000000000254e-01 9.384689999999999976e-01 -1.370352999999999932e+00 1.067401000000000044e+00 9.097809999999999508e-01 -6.392940000000000289e-01 -1.107350000000000001e-01 5.045230000000000548e-01 1.888869999999999993e-01 7.008229999999999738e-01 4.079559999999999853e-01 -9.699200000000000044e-01 -7.805860000000000021e-01 8.798190000000000177e-01 -8.513600000000000334e-02 -1.310785000000000089e+00
1.142743999999999982e+00 -7.792860000000000342e-01 -1.428480000000000028e-01 6.621529999999999916e-01 7.154810000000000336e-01 -1.662733999999999934e+00 9.606940000000000479e-01 -3.998299999999999771e-02 6.801230000000000331e-01 -1.910770999999999997e+00 -1.277800000000000047e-01 9.730029999999999513e-01 -4.806210000000000204e-01 -2.736088000000000076e+00 9.328260000000000440e-01 2.045569999999999888e-01 3.822150000000000269e-01 1.823442999999999925e+00 -1.440765999999999991e+00 2.787936000000000192e+00 1.058988000000000040e+00 -6.427100000000000035e-01 8.006060000000000398e-01 -9.045189999999999619e-01 -1.767722999999999933e+00 -1.389759999999999884e-01 -1.672584999999999988e+00 -4.974660000000000193e-01 -1.434571999999999958e+00 -6.926919999999999744e-01 -2.127177999999999791e+00 1.453532999999999964e+00 2.271340000000000026e-01 1.896997999999999962e+00 1.525258000000000003e+00 1.757185999999999915e+00 -2.213140000000000107e-01 8.962090000000000334e-01 -1.386609999999999898e+00 -1.205176000000000025e+00 1.852580000000000060e-01 -1.469732999999999956e+00 4.209959999999999813e-01 1.172569999999999890e+00 -2.514100000000000223e-01 -9.522929999999999451e-01 -3.989809999999999746e-01 -1.606222999999999956e+00 1.941599999999999993e+00 7.484340000000000437e-01 -2.367350000000000010e-01 2.701401000000000163e+00 1.555060000000000109e+00 -3.491159999999999819e-01 1.058097999999999983e+00 7.289889999999999981e-01 -2.534197999999999951e+00 6.968029999999999502e-01 -3.056189999999999740e-01 -7.926320000000000032e-01 1.029128000000000043e+00 -1.229630999999999919e+00 4.693669999999999787e-01 2.042730000000000101e-01 -6.325520000000000032e-01 8.709590000000000387e-01 7.694609999999999506e-01 1.235586999999999991e+00 -1.709832999999999936e+00 8.758199999999999319e-02 -2.011040000000000050e-01 -6.195389999999999509e-01 -5.255119999999999791e-01 -9.243069999999999897e-01 6.154519999999999991e-01 6.104739999999999611e-01 -1.393958000000000030e+00 1.861483999999999916e+00 -2.505279999999999729e-01 3.606179999999999941e-01 -1.499301999999999913e+00 9.927489999999999926e-01 2.380049999999999943e-01 2.636693000000000175e+00 2.133309999999999929e-01 1.781279999999999974e+00 -1.004189999999999916e+00 -1.831619999999999915e-01 -1.199020999999999892e+00 1.098295000000000021e+00 -3.946613000000000149e+00 -7.626540000000000541e-01 8.368609999999999660e-01 4.265229999999999855e-01 -8.662999999999999867e-02 -8.638190000000000035e-01 -6.383290000000000353e-01 9.197229999999999572e-01 1.421761999999999970e+00 1.242256999999999945e+00 -1.661343000000000014e+00 9.034950000000000481e-01 7.586079999999999490e-01 -1.085253999999999941e+00 -7.414410000000000167e-01 -3.581059999999999799e-01 -1.446093999999999991e+00 6.897039999999999837e-01 -8.721609999999999641e-01 -9.029260000000000064e-01 1.283382000000000023e+00
3.797590000000000132e-01 7.747999999999999679e-03 1.308254000000000028e+00 1.996707999999999927e+00 9.762399999999999967e-01 1.586629000000000067e+00 -8.876110000000000388e-01 -4.054519999999999791e-01 5.763110000000000177e-01 2.867730000000000001e-01 -6.932399999999999674e-02 -2.076079999999999870e-01 -1.894675000000000109e+00 4.783120000000000149e-01 1.130659000000000081e+00 1.940100000000000158e-02 4.963679999999999759e-01 9.605299999999999949e-01 4.105119999999999880e-01 1.452598000000000056e+00 1.994309999999999972e-01 2.437599999999999836e-02 1.662720000000000031e-01 6.185910000000000020e-01 -3.031349999999999878e-01 9.327509999999999968e-01 -3.713219999999999854e-01 1.629120000000000013e-01 -9.725399999999999323e-02 7.390660000000000007e-01 2.760059999999999736e-01 -9.987559999999999771e-01 -1.915143000000000040e+00 6.959389999999999743e-01 -2.106827000000000005e+00 -1.960395000000000110e+00 -1.431076999999999932e+00 -1.303425000000000056e+00 2.880459000000000103e+00 -2.372498999999999914e+00 -1.652003000000000110e+00 4.641179999999999750e-01 -4.190650000000000208e-01 5.314039999999999875e-01 1.962896999999999892e+00 -2.211090000000000000e+00 -1.157334000000000085e+00 1.043090000000000073e+00 -7.612799999999999567e-01 -3.899449999999999861e-01 -2.404736000000000207e+00 -1.196001000000000092e+00 -3.957919999999999772e-01 1.102219000000000060e+00 2.075549000000000088e+00 -1.313822999999999963e+00 1.332990000000000008e-01 -1.011039999999999939e+00 2.796219999999999817e-01 -1.444862000000000091e+00 -1.024450000000000083e+00 -1.412187999999999999e+00 -1.675988999999999951e+00 -7.394220000000000237e-01 2.929390000000000049e-01 6.470930000000000293e-01 1.543230000000000102e+00 7.493060000000000276e-01 -1.352916000000000007e+00 -1.881242999999999999e+00 -9.206790000000000251e-01 -9.999599999999999600e-01 3.045634999999999870e+00 4.555330000000000212e-01 -4.598470000000000057e-01 -7.119200000000000528e-02 -1.009970999999999952e+00 2.020720000000000016e-01 1.006359999999999921e+00 1.512645000000000017e+00 2.706760000000000277e-01 -1.265411000000000064e+00 -1.122079000000000049e+00 -8.385240000000000471e-01 6.645600000000000118e-02 2.217713999999999963e+00 4.079599999999999893e-02 -4.833689999999999931e-01 -1.165933000000000108e+00 -1.182528000000000024e+00 2.889300000000000201e-01 5.249199999999999700e-02 2.722450999999999954e+00 -1.802499999999999936e-02 6.246819999999999595e-01 -3.492890000000000161e-01 1.439137000000000111e+00 6.236099999999999977e-02 -1.208785999999999916e+00 -3.886300000000000171e-02 5.121219999999999661e-01 5.362190000000000012e-01 6.049870000000000525e-01 1.763269999999999893e+00 -1.097774000000000028e+00 1.019435000000000091e+00 1.987614999999999910e+00 -1.608903999999999890e+00 2.667339999999999822e+00 -3.121200000000000016e-02 -4.627699999999999869e-02