1.664959999999999996e+00 1.025199999999999889e+00 7.044200000000000461e-01 3.105700000000000127e+00 1.868829999999999991e+00 3.152410000000000156e+00 4.755169999999999675e+00 2.831770000000000120e+00 5.799859999999999793e+00 3.165669999999999984e+00 3.622970000000000024e+00 6.845599999999999463e-01 5.018189999999999706e+00 4.328920000000000101e+00 2.452490000000000059e+00 6.257000000000000062e-02 5.417699999999999960e+00 5.750820000000000043e+00 4.834620000000000140e+00 6.220909999999999940e+00 5.561399999999999677e-01 6.060999999999999721e-02 7.154490000000000016e+00 3.214980000000000171e+00 1.686239999999999961e+00 8.077799999999999869e+00 5.748029999999999973e+00 4.798060000000000436e+00 7.976799999999999446e-01 7.443199999999999816e-01 1.068500000000000005e-01 1.737230000000000052e+00 3.206249999999999822e+00 1.558200000000000029e+00 2.746080000000000076e+00 5.738400000000000389e+00 1.861299999999999899e-01 3.519629999999999814e+00 5.021200000000000108e-01 1.622940000000000049e+00 4.519250000000000433e+00 3.263949999999999907e+00 3.072389999999999954e+00 5.461269999999999847e+00 5.851469999999999949e+00 1.622169999999999890e+00 6.126280000000000392e+00 5.940299999999999470e-01 3.188190000000000079e+00 7.022840000000000416e+00 3.182069999999999954e+00 -1.475789999999999935e+00 8.002950000000000230e+00 5.646099999999999675e+00 4.211570000000000036e+00 4.539119999999999600e+00 3.650059999999999860e+00 -1.387559999999999905e+00 7.977839999999999598e+00 2.791899999999999937e-01 1.391900000000000082e-01 8.826710000000000278e+00 2.505040000000000155e+00 3.188800000000000079e+00 1.937959999999999905e+00 5.085849999999999760e+00 2.455799999999999927e-01 5.666059999999999874e+00 7.603369999999999962e+00 3.156649999999999956e+00 3.519610000000000127e+00 2.580610000000000070e+00 -1.555020000000000069e+00 4.584190000000000431e+00 5.388510000000000133e+00 1.720089999999999897e+00 8.235979999999999634e+00 7.614700000000000024e+00 -1.460839999999999916e+00 6.123050000000000104e+00 2.482099999999999973e+00 1.430099999999999982e-01 7.177660000000000373e+00 5.145710000000000228e+00 3.258669999999999956e+00 8.305999999999999495e-02 7.313000000000000056e-02 3.303420000000000023e+00 8.844020000000000437e+00 2.699570000000000025e+00 -1.403469999999999995e+00 9.791280000000000427e+00 5.026430000000000398e+00 4.793520000000000003e+00 2.641430000000000167e+00 9.560000000000000789e-03 4.062399999999999900e-01 3.372770000000000046e+00 2.403770000000000184e+00 1.593560000000000088e+00 4.519919999999999938e+00 5.051709999999999923e+00 -1.571110000000000007e+00 8.125379999999999825e+00 7.489959999999999951e+00 1.647999999999999909e+00 6.247230000000000061e+00 2.502190000000000136e+00 3.172800000000000065e+00 7.116600000000000037e+00 5.011720000000000397e+00
1.570599999999999996e+00 9.153200000000000225e-01 6.381099999999999550e-01 3.099229999999999929e+00 1.856249999999999956e+00 3.192689999999999806e+00 4.500820000000000043e+00 2.760190000000000143e+00 5.851989999999999803e+00 3.146399999999999864e+00 3.674490000000000034e+00 6.309599999999999653e-01 4.547170000000000378e+00 4.696830000000000283e+00 3.058580000000000076e+00 6.188320000000000043e+00 5.657740000000000435e+00 5.853670000000000151e+00 4.695059999999999789e+00 6.395819999999999617e+00 6.640800000000000036e-01 6.259369999999999656e+00 7.280149999999999899e+00 3.210929999999999840e+00 7.728010000000000268e+00 8.315149999999999153e+00 5.745969999999999800e+00 4.642719999999999736e+00 9.302700000000000413e-01 6.266100000000000003e-01 6.246749999999999581e+00 1.679899999999999949e+00 3.121090000000000142e+00 7.632520000000000415e+00 2.833130000000000148e+00 5.699130000000000251e+00 6.246559999999999668e+00 3.653319999999999901e+00 6.273600000000000287e-01 7.867280000000000051e+00 4.600769999999999804e+00 3.149640000000000217e+00 9.228440000000000865e+00 5.562129999999999797e+00 5.755049999999999777e+00 7.813749999999999751e+00 6.403439999999999799e+00 6.105199999999999516e-01 9.308640000000000470e+00 7.354680000000000106e+00 3.191699999999999982e+00 1.080889999999999951e+01 8.322119999999999962e+00 5.733159999999999812e+00 5.494089999999999918e+00 4.096499999999999808e+00 3.901780000000000026e+00 1.093389999999999951e+01 8.205460000000000420e+00 6.589000000000000412e-02 6.323900000000000077e+00 9.078969999999999985e+00 2.541199999999999903e+00 9.214359999999999218e+00 1.909510000000000041e+00 5.121929999999999872e+00 1.621499999999999941e+00 2.751889999999999947e+00 3.855999999999999706e-02 3.123530000000000140e+00 3.635440000000000005e+00 2.504900000000000126e+00 1.084769999999999968e+01 4.657390000000000363e+00 5.414909999999999890e+00 7.695159999999999556e+00 8.310359999999999303e+00 7.646099999999999675e+00 1.087930000000000064e+01 6.510340000000000238e+00 2.551520000000000010e+00 1.237950000000000017e+01 7.409749999999999837e+00 5.137979999999999769e+00 7.654020000000000046e+00 2.824310000000000098e+00 7.610350000000000392e+00 9.370129999999999626e+00 9.141429999999999723e+00 2.535260000000000069e+00 6.074360000000000426e+00 1.936059999999999892e+00 5.046800000000000175e+00 4.672039999999999971e+00 2.746160000000000156e+00 6.429999999999999952e-03 6.434899999999999842e+00 3.485959999999999948e+00 2.485149999999999970e+00 7.652689999999999770e+00 4.653279999999999639e+00 5.064320000000000377e+00 1.079819999999999958e+01 8.308469999999999800e+00 7.653270000000000017e+00 7.797109999999999985e+00 6.402180000000000426e+00 2.523330000000000073e+00 9.273130000000000095e+00 7.384420000000000428e+00 5.105129999999999946e+00
1.607290000000000108e+00 7.825199999999999934e-01 5.755000000000000115e-01 2.842099999999999849e+00 1.739859999999999962e+00 3.189090000000000202e+00 4.597059999999999924e+00 2.707819999999999894e+00 5.540750000000000064e+00 3.106240000000000112e+00 3.504539999999999988e+00 7.513800000000000479e-01 4.067400000000000126e+00 4.872300000000000075e+00 3.274599999999999955e+00 -1.059599999999999986e-01 5.209190000000000431e+00 5.581570000000000142e+00 4.462469999999999715e+00 6.140240000000000364e+00 4.841900000000000093e-01 -1.832399999999999862e-01 7.006029999999999980e+00 3.117750000000000021e+00 1.337029999999999941e+00 8.061120000000000729e+00 5.599300000000000388e+00 4.554050000000000153e+00 8.684699999999999642e-01 6.333199999999999941e-01 1.038999999999999993e-02 1.730310000000000015e+00 3.021630000000000038e+00 1.458599999999999897e+00 2.671450000000000102e+00 5.563449999999999562e+00 1.360899999999999888e-01 3.408999999999999808e+00 5.376999999999999558e-01 1.431920000000000082e+00 4.451069999999999638e+00 3.161249999999999893e+00 2.851789999999999825e+00 5.294050000000000367e+00 5.701240000000000308e+00 1.396169999999999911e+00 6.137690000000000090e+00 6.962599999999999900e-01 2.765509999999999913e+00 7.135159999999999947e+00 3.072360000000000202e+00 -1.727549999999999919e+00 7.882979999999999876e+00 5.524600000000000399e+00 4.674809999999999910e+00 3.748949999999999783e+00 2.799110000000000209e+00 6.643000000000000294e-02 2.659999999999999865e-02 2.892000000000000126e-02 -1.175599999999999978e-01 8.776600000000000179e+00 2.475119999999999987e+00 1.430620000000000003e+00 9.630380000000000607e+00 4.920620000000000438e+00 1.647199999999999998e+00 2.524160000000000181e+00 1.947000000000000119e-02 2.954439999999999955e+00 3.487690000000000179e+00 2.560659999999999936e+00 -1.631879999999999997e+00 4.428040000000000198e+00 5.184960000000000235e+00 2.941289999999999960e+00 5.267909999999999648e+00 1.026799999999999935e-01 4.346440000000000303e+00 6.424280000000000435e+00 2.358369999999999855e+00 -8.916000000000000314e-02 7.120569999999999844e+00 4.973650000000000126e+00 -1.133300000000000002e-01 1.044884000000000057e+01 7.390259999999999607e+00 4.446579999999999977e+00 9.677599999999999536e-01 2.561319999999999819e+00 -1.609369999999999967e+00 9.656040000000000845e+00 4.903570000000000206e+00 4.612680000000000113e+00 2.598219999999999974e+00 1.924299999999999899e-01 2.064499999999999946e-01 3.440729999999999844e+00 2.367820000000000036e+00 1.489139999999999908e+00 4.381649999999999601e+00 4.910519999999999996e+00 -1.800310000000000077e+00 7.877299999999999969e+00 7.353780000000000427e+00 1.255540000000000100e+00 6.165960000000000107e+00 2.593980000000000175e+00 2.817320000000000046e+00 6.908369999999999678e+00 4.855669999999999931e+00
1.573180000000000023e+00 9.064400000000000235e-01 6.636600000000000277e-01 3.048480000000000079e+00 1.694229999999999903e+00 3.192190000000000083e+00 4.639179999999999637e+00 2.541430000000000078e+00 5.860450000000000159e+00 3.099740000000000162e+00 3.545040000000000191e+00 6.229799999999999782e-01 4.657799999999999940e+00 4.669629999999999725e+00 2.549980000000000135e+00 -4.859999999999999737e-03 5.307470000000000354e+00 5.767540000000000333e+00 4.674760000000000026e+00 6.307360000000000078e+00 5.820499999999999563e-01 5.843000000000000277e-02 7.143130000000000202e+00 3.250929999999999875e+00 1.565309999999999979e+00 7.992829999999999657e+00 5.759210000000000385e+00 4.644269999999999676e+00 9.166800000000000503e-01 6.600599999999999801e-01 4.367000000000000048e-02 1.728860000000000063e+00 3.197470000000000034e+00 1.562219999999999942e+00 2.607159999999999922e+00 5.743109999999999715e+00 7.463999999999999801e-02 3.541889999999999983e+00 6.123199999999999754e-01 1.559029999999999916e+00 4.460530000000000328e+00 3.194719999999999782e+00 3.052389999999999937e+00 5.336299999999999599e+00 5.794959999999999667e+00 1.600179999999999936e+00 6.296840000000000437e+00 6.495199999999999863e-01 3.125620000000000065e+00 7.178639999999999688e+00 3.224650000000000016e+00 -1.506099999999999994e+00 7.980019999999999669e+00 5.766070000000000029e+00 4.516949999999999577e+00 3.894190000000000040e+00 3.667580000000000062e+00 -1.499980000000000091e+00 8.088620000000000587e+00 4.077999999999999681e-02 2.151000000000000134e-02 8.921979999999999578e+00 2.555489999999999817e+00 1.575110000000000010e+00 9.784929999999999239e+00 5.097900000000000098e+00 1.553000000000000040e-02 5.268729999999999691e+00 7.647059999999999746e+00 3.039050000000000029e+00 3.488469999999999960e+00 2.539590000000000014e+00 -1.571069999999999967e+00 4.347649999999999793e+00 5.390620000000000189e+00 3.139470000000000205e+00 5.374290000000000234e+00 8.139999999999999666e-03 -1.489929999999999977e+00 6.478830000000000311e+00 2.459610000000000074e+00 1.533999999999999947e-02 7.087539999999999729e+00 5.130329999999999835e+00 3.104319999999999968e+00 1.938000000000000139e-02 7.599999999999999985e-03 4.614989999999999704e+00 8.747599999999999820e-01 2.552929999999999922e+00 -1.515279999999999960e+00 9.783659999999999357e+00 5.132550000000000168e+00 4.627439999999999998e+00 2.719629999999999992e+00 3.008999999999999869e-02 3.318000000000000116e-02 3.508620000000000072e+00 2.518369999999999997e+00 1.555590000000000028e+00 4.421299999999999564e+00 5.112260000000000026e+00 5.394999999999999796e-02 5.352929999999999744e+00 2.163999999999999951e-02 1.587299999999999933e+00 6.283680000000000376e+00 2.562640000000000029e+00 3.105550000000000033e+00 7.107330000000000148e+00 5.130370000000000097e+00
1.566580000000000084e+00 8.948800000000000088e-01 6.340599999999999570e-01 3.035379999999999967e+00 1.677540000000000031e+00 3.159130000000000216e+00 4.627939999999999721e+00 2.492849999999999788e+00 5.713779999999999859e+00 3.117399999999999949e+00 3.556529999999999969e+00 6.934299999999999908e-01 4.733579999999999899e+00 4.695649999999999658e+00 2.474299999999999944e+00 3.198000000000000148e-02 5.261700000000000266e+00 5.654420000000000002e+00 4.615099999999999980e+00 6.261350000000000193e+00 5.646900000000000253e-01 2.523999999999999855e-02 7.116909999999999847e+00 3.163730000000000153e+00 1.555549999999999988e+00 7.897280000000000300e+00 5.670889999999999986e+00 4.596280000000000143e+00 9.025900000000000034e-01 6.374600000000000266e-01 3.223999999999999783e-02 1.707179999999999920e+00 3.104470000000000063e+00 1.547860000000000014e+00 2.574440000000000062e+00 5.647820000000000285e+00 7.689999999999999614e-02 3.526310000000000056e+00 6.047500000000000098e-01 1.511109999999999953e+00 4.391420000000000101e+00 3.180379999999999985e+00 3.054730000000000167e+00 5.256120000000000125e+00 5.661109999999999864e+00 1.577250000000000041e+00 6.214590000000000281e+00 6.410900000000000487e-01 3.017580000000000151e+00 7.092399999999999594e+00 3.130389999999999784e+00 -1.474930000000000074e+00 7.910160000000000302e+00 5.650689999999999991e+00 4.450120000000000076e+00 3.874880000000000102e+00 3.565370000000000150e+00 -1.511749999999999927e+00 8.014839999999999520e+00 3.432000000000000328e-02 2.139999999999999975e-03 8.844989999999999242e+00 2.509949999999999903e+00 1.529009999999999980e+00 9.662969999999999615e+00 5.062839999999999563e+00 1.580750000000000099e+00 2.666640000000000121e+00 2.986000000000000112e-02 2.998790000000000067e+00 3.462070000000000203e+00 2.557539999999999925e+00 -1.505090000000000039e+00 4.296890000000000320e+00 5.266610000000000014e+00 3.088000000000000078e+00 5.315170000000000172e+00 4.519999999999999712e-03 -1.529349999999999987e+00 6.445669999999999789e+00 2.422349999999999781e+00 3.751999999999999780e-02 7.020089999999999719e+00 5.034810000000000230e+00 1.540610000000000035e+00 7.997180000000000177e+00 1.847000000000000031e-02 3.006419999999999870e+00 8.860889999999999489e+00 2.546400000000000219e+00 -1.505900000000000016e+00 9.661369999999999791e+00 4.985899999999999999e+00 4.591719999999999580e+00 2.699160000000000004e+00 2.545000000000000040e-02 4.739000000000000157e-02 3.448350000000000026e+00 2.488090000000000135e+00 1.520920000000000050e+00 4.342069999999999652e+00 5.076670000000000016e+00 2.674999999999999947e-02 5.325700000000000323e+00 4.550000000000000225e-03 1.487139999999999906e+00 6.162309999999999732e+00 2.516059999999999963e+00 3.083009999999999806e+00 7.005180000000000184e+00 5.026959999999999873e+00
1.646060000000000079e+00 8.656700000000000506e-01 5.309399999999999675e-01 3.071309999999999985e+00 1.708539999999999948e+00 3.156940000000000079e+00 4.720819999999999794e+00 2.610139999999999905e+00 5.570649999999999658e+00 3.079169999999999963e+00 3.376009999999999955e+00 6.447300000000000253e-01 4.365020000000000344e+00 4.544439999999999813e+00 2.421920000000000073e+00 2.452499999999999958e-01 5.397260000000000169e+00 5.626710000000000100e+00 4.766910000000000203e+00 6.363030000000000186e+00 5.756400000000000405e-01 1.261500000000000121e-01 7.191159999999999997e+00 3.054349999999999898e+00 1.704469999999999930e+00 8.158429999999999183e+00 5.653669999999999973e+00 4.622320000000000206e+00 8.054700000000000193e-01 5.722899999999999654e-01 -2.146999999999999950e-02 1.828850000000000087e+00 3.060880000000000045e+00 1.563250000000000028e+00 2.827280000000000015e+00 5.561110000000000220e+00 1.160100000000000020e-01 3.463950000000000085e+00 6.453400000000000247e-01 1.657880000000000020e+00 4.402050000000000018e+00 3.038780000000000037e+00 3.283290000000000042e+00 5.297419999999999796e+00 5.598880000000000301e+00 1.751900000000000013e+00 6.200059999999999683e+00 6.165599999999999969e-01 3.257239999999999913e+00 7.141289999999999694e+00 3.098050000000000193e+00 -1.297730000000000050e+00 8.113920000000000243e+00 5.558230000000000004e+00 -9.965300000000000269e-01 4.575050000000000061e+00 3.568909999999999805e+00 -2.686150000000000038e+00 1.073077999999999932e+01 7.412880000000000358e+00 1.850999999999999868e-01 8.892379999999999285e+00 2.484929999999999861e+00 3.186100000000000154e+00 1.902290000000000036e+00 4.976189999999999891e+00 9.471999999999999864e-02 5.346779999999999866e+00 7.372329999999999828e+00 2.947540000000000049e+00 3.409650000000000070e+00 2.436640000000000139e+00 -1.253430000000000044e+00 4.486010000000000275e+00 5.287530000000000285e+00 3.313200000000000145e+00 5.233869999999999578e+00 6.829000000000000348e-02 -1.321830000000000060e+00 6.405459999999999710e+00 2.463820000000000121e+00 2.154000000000000081e-01 7.207349999999999923e+00 5.057319999999999816e+00 3.290100000000000247e-01 1.063827000000000034e+01 7.376970000000000027e+00 4.519809999999999661e+00 9.428800000000000514e-01 2.450779999999999959e+00 9.325999999999999568e-02 1.860999999999999988e+00 4.890780000000000349e+00 4.623420000000000307e+00 2.582009999999999916e+00 1.201500000000000068e-01 9.758000000000000007e-02 3.474209999999999798e+00 2.436319999999999819e+00 1.731109999999999927e+00 4.539010000000000211e+00 4.940710000000000157e+00 1.633799999999999975e-01 5.321060000000000123e+00 5.163000000000000228e-02 1.831090000000000106e+00 6.295110000000000205e+00 2.479319999999999968e+00 3.240299999999999958e+00 7.211739999999999817e+00 4.992490000000000094e+00
1.588719999999999910e+00 8.850700000000000234e-01 6.661599999999999744e-01 3.109329999999999927e+00 1.724939999999999918e+00 3.200839999999999907e+00 4.637069999999999581e+00 2.570260000000000211e+00 5.860629999999999562e+00 3.061770000000000103e+00 3.558660000000000156e+00 6.475499999999999590e-01 4.584929999999999950e+00 4.627869999999999706e+00 2.575750000000000206e+00 3.964000000000000162e-02 5.381520000000000081e+00 5.791800000000000281e+00 4.636750000000000149e+00 6.304829999999999934e+00 5.779900000000000038e-01 3.139000000000000123e-02 7.139059999999999739e+00 3.183860000000000134e+00 1.576659999999999950e+00 8.029629999999999157e+00 5.722769999999999690e+00 4.625149999999999650e+00 9.089199999999999502e-01 6.690000000000000391e-01 8.056000000000000660e-02 1.702029999999999932e+00 3.191920000000000091e+00 1.579739999999999922e+00 2.658440000000000136e+00 5.730430000000000135e+00 4.472999999999999893e-02 3.540519999999999889e+00 6.266899999999999693e-01 1.562189999999999968e+00 4.457550000000000345e+00 3.182100000000000151e+00 3.085059999999999913e+00 5.340010000000000367e+00 5.776469999999999771e+00 1.561760000000000037e+00 6.280219999999999914e+00 6.200599999999999445e-01 3.083919999999999995e+00 7.147560000000000358e+00 3.212819999999999787e+00 -1.495440000000000103e+00 8.019700000000000273e+00 5.734930000000000305e+00 4.654139999999999944e+00 3.879249999999999865e+00 3.689970000000000194e+00 -1.507249999999999979e+00 8.066489999999999938e+00 5.020999999999999769e-02 5.451000000000000290e-02 8.917770000000000863e+00 2.559979999999999922e+00 1.572880000000000056e+00 9.806210000000000093e+00 5.108649999999999913e+00 1.564449999999999896e+00 2.681680000000000064e+00 2.784000000000000016e-02 3.058590000000000142e+00 3.488410000000000011e+00 2.564179999999999904e+00 -1.485679999999999890e+00 4.377189999999999692e+00 5.399250000000000327e+00 1.605639999999999956e+00 7.991419999999999746e+00 7.636949999999999683e+00 -1.510920000000000041e+00 6.412580000000000169e+00 2.429889999999999883e+00 3.513999999999999763e-02 7.160730000000000040e+00 5.065170000000000172e+00 1.607040000000000024e+00 2.628159999999999830e+00 7.640530000000000044e+00 3.109459999999999891e+00 8.920899999999999608e+00 2.580940000000000012e+00 -1.496410000000000018e+00 9.787499999999999645e+00 5.106220000000000425e+00 4.580289999999999750e+00 2.731910000000000061e+00 3.758000000000000229e-02 6.031999999999999862e-02 3.488649999999999807e+00 2.517630000000000035e+00 1.568999999999999950e+00 4.464949999999999974e+00 5.110070000000000334e+00 -1.474210000000000020e+00 7.971370000000000289e+00 7.632789999999999964e+00 1.557979999999999920e+00 6.235129999999999839e+00 2.527179999999999982e+00 3.117459999999999898e+00 7.125989999999999824e+00 5.105920000000000236e+00
1.622109999999999941e+00 8.944499999999999673e-01 6.625299999999999523e-01 3.223899999999999988e+00 1.889899999999999913e+00 3.161649999999999849e+00 4.628980000000000317e+00 2.854359999999999786e+00 5.728209999999999802e+00 3.011530000000000040e+00 3.607429999999999914e+00 5.862199999999999633e-01 4.458230000000000359e+00 5.159060000000000201e+00 3.805660000000000043e+00 8.903999999999999415e-02 5.459520000000000373e+00 5.939759999999999707e+00 4.755200000000000315e+00 6.355050000000000310e+00 6.937200000000000033e-01 -2.919999999999999853e-03 7.272619999999999862e+00 3.236909999999999954e+00 1.431340000000000057e+00 8.275470000000000326e+00 5.712609999999999744e+00 4.874590000000000423e+00 8.429100000000000481e-01 7.137700000000000156e-01 1.824999999999999956e-01 1.890649999999999942e+00 3.259959999999999969e+00 1.493980000000000086e+00 2.693680000000000074e+00 5.720579999999999998e+00 -4.775000000000000078e-02 3.510240000000000027e+00 5.937000000000000055e-01 1.438530000000000086e+00 4.692540000000000155e+00 3.205649999999999888e+00 2.942800000000000082e+00 5.598119999999999763e+00 5.871019999999999683e+00 1.571809999999999929e+00 6.215620000000000367e+00 6.486499999999999488e-01 3.090300000000000047e+00 7.457989999999999675e+00 3.217070000000000096e+00 -1.680709999999999926e+00 8.212120000000000530e+00 5.718370000000000175e+00 4.808019999999999960e+00 4.263760000000000439e+00 2.899030000000000218e+00 6.890999999999999903e-02 4.105999999999999928e-02 1.750000000000000167e-02 1.742900000000000005e-01 9.018390000000000128e+00 2.494590000000000085e+00 3.088589999999999947e+00 1.921149999999999913e+00 5.130300000000000082e+00 -1.777700000000000113e-01 5.596070000000000100e+00 7.671840000000000437e+00 3.105150000000000077e+00 3.676769999999999872e+00 2.578559999999999963e+00 -1.578640000000000043e+00 4.641740000000000421e+00 5.480809999999999960e+00 1.447310000000000096e+00 8.257720000000000837e+00 7.668059999999999654e+00 4.639000000000000234e+00 6.498529999999999696e+00 2.557560000000000056e+00 -1.678900000000000114e-01 7.169039999999999857e+00 5.076419999999999710e+00 3.205350000000000144e+00 4.533999999999999836e-02 1.713999999999999899e-02 4.859759999999999636e+00 1.039460000000000051e+00 2.562339999999999840e+00 -1.667259999999999964e+00 1.000065000000000026e+01 5.102570000000000050e+00 4.536520000000000330e+00 2.733530000000000015e+00 7.313999999999999668e-02 6.529999999999999694e-02 3.497729999999999784e+00 2.395929999999999893e+00 1.595949999999999980e+00 4.605369999999999742e+00 5.170930000000000248e+00 -1.808389999999999942e+00 8.183579999999999188e+00 7.633440000000000225e+00 1.509759999999999991e+00 6.471980000000000288e+00 2.534019999999999939e+00 3.009030000000000094e+00 7.347570000000000157e+00 5.052439999999999820e+00
1.574950000000000072e+00 8.835199999999999720e-01 6.883700000000000374e-01 3.144789999999999974e+00 1.811409999999999965e+00 3.253289999999999793e+00 4.594289999999999985e+00 2.587279999999999802e+00 5.946869999999999656e+00 3.092589999999999950e+00 3.585210000000000008e+00 6.304699999999999749e-01 4.527470000000000105e+00 4.595119999999999649e+00 2.837730000000000086e+00 -1.387000000000000038e-02 5.441950000000000287e+00 5.912539999999999907e+00 4.613069999999999560e+00 6.318730000000000402e+00 6.259500000000000064e-01 -4.411000000000000337e-02 7.149960000000000093e+00 3.235790000000000166e+00 1.460860000000000047e+00 8.128019999999999357e+00 5.805970000000000297e+00 4.669800000000000395e+00 8.984400000000000164e-01 6.776699999999999946e-01 7.875999999999999668e-02 1.657089999999999952e+00 3.207819999999999894e+00 1.499759999999999982e+00 2.688289999999999846e+00 5.806750000000000078e+00 1.662999999999999895e-02 3.570339999999999847e+00 6.578800000000000203e-01 1.578089999999999993e+00 4.494189999999999685e+00 3.259749999999999925e+00 3.055800000000000072e+00 5.384459999999999802e+00 5.855019999999999669e+00 1.495460000000000012e+00 6.289399999999999658e+00 6.692900000000000515e-01 3.033529999999999838e+00 7.194560000000000066e+00 3.262070000000000025e+00 -1.644609999999999905e+00 8.108779999999999433e+00 5.785859999999999559e+00 -1.048340000000000050e+00 3.948150000000000048e+00 3.824939999999999785e+00 4.590209999999999901e+00 8.120559999999999334e+00 5.607000000000000178e-02 6.020000000000000177e-03 8.948050000000000281e+00 2.609039999999999804e+00 3.039309999999999956e+00 1.800650000000000084e+00 5.147070000000000256e+00 1.586540000000000061e+00 2.691580000000000084e+00 1.554999999999999959e-02 3.048039999999999861e+00 3.551439999999999930e+00 2.494159999999999933e+00 -1.602789999999999937e+00 4.472590000000000288e+00 5.462780000000000413e+00 1.434369999999999923e+00 8.094020000000000437e+00 7.739220000000000432e+00 -1.634940000000000060e+00 6.425130000000000230e+00 2.501879999999999882e+00 -7.835999999999999910e-02 7.213890000000000136e+00 5.173510000000000275e+00 1.491570000000000062e+00 2.683159999999999989e+00 7.747259999999999813e+00 4.691600000000000215e+00 8.888399999999999634e-01 2.577879999999999949e+00 -8.340000000000000191e-02 1.840989999999999904e+00 5.127679999999999794e+00 4.658079999999999998e+00 2.721319999999999961e+00 1.710000000000000062e-02 1.352200000000000069e-01 3.499280000000000168e+00 2.535989999999999966e+00 1.482180000000000053e+00 4.510019999999999918e+00 5.162589999999999790e+00 -1.669130000000000003e+00 8.067849999999999966e+00 7.727109999999999701e+00 1.472299999999999942e+00 6.292510000000000048e+00 2.582809999999999828e+00 3.030310000000000059e+00 7.231469999999999843e+00 5.171109999999999651e+00
1.526129999999999987e+00 8.550200000000000022e-01 7.220100000000000406e-01 3.205169999999999852e+00 1.733049999999999979e+00 3.190900000000000070e+00 4.730719999999999814e+00 2.581669999999999909e+00 5.788330000000000197e+00 3.098790000000000155e+00 3.578629999999999978e+00 6.337699999999999445e-01 4.664369999999999905e+00 4.591219999999999857e+00 2.435599999999999987e+00 -1.875999999999999890e-02 5.336470000000000269e+00 5.914290000000000269e+00 4.569679999999999964e+00 6.224490000000000300e+00 5.925700000000000411e-01 -1.120199999999999946e-01 7.182030000000000136e+00 3.279030000000000111e+00 1.456239999999999979e+00 7.948900000000000077e+00 5.715150000000000396e+00 4.733539999999999637e+00 8.254899999999999460e-01 6.791000000000000369e-01 9.271000000000000074e-02 1.791109999999999980e+00 3.214500000000000135e+00 1.580529999999999990e+00 2.679300000000000015e+00 5.862199999999999633e+00 -1.349000000000000025e-02 3.582780000000000076e+00 6.473700000000000010e-01 1.632840000000000069e+00 4.413059999999999761e+00 3.175710000000000033e+00 3.154760000000000009e+00 5.402590000000000003e+00 5.834570000000000256e+00 1.519609999999999905e+00 6.298689999999999678e+00 6.772500000000000187e-01 3.045920000000000183e+00 7.295560000000000045e+00 3.159089999999999954e+00 -1.633969999999999922e+00 7.997239999999999682e+00 5.842299999999999827e+00 -1.073960000000000026e+00 4.503989999999999938e+00 3.754640000000000200e+00 -1.553879999999999928e+00 8.034520000000000550e+00 5.130000000000000011e-03 -3.150000000000000022e-02 8.942560000000000286e+00 2.570720000000000116e+00 1.514920000000000044e+00 9.756930000000000547e+00 5.128190000000000026e+00 1.616290000000000004e+00 2.669130000000000003e+00 5.045999999999999791e-02 3.076159999999999783e+00 3.519280000000000186e+00 2.548109999999999875e+00 -1.517980000000000107e+00 4.481460000000000221e+00 5.409370000000000012e+00 1.561190000000000078e+00 8.006579999999999586e+00 7.630169999999999675e+00 -1.625999999999999890e+00 6.559540000000000148e+00 2.455400000000000027e+00 -3.869999999999999829e-02 7.085609999999999964e+00 5.134019999999999584e+00 1.536280000000000090e+00 8.030649999999999622e+00 5.541000000000000092e-02 4.732890000000000263e+00 9.644700000000000495e-01 2.632330000000000059e+00 -1.513959999999999972e+00 9.747090000000000032e+00 5.120110000000000383e+00 4.683939999999999770e+00 2.630539999999999878e+00 1.188499999999999973e-01 1.552900000000000114e-01 3.598790000000000155e+00 2.515429999999999833e+00 1.621660000000000101e+00 4.527790000000000425e+00 5.229910000000000281e+00 -5.868000000000000299e-02 5.375280000000000058e+00 1.998000000000000123e-02 1.540459999999999940e+00 6.252539999999999765e+00 2.612830000000000208e+00 3.077609999999999957e+00 7.158890000000000420e+00 5.095939999999999692e+00