-2.955506029399999761e+02
-2.980763570899999877e+02
-2.950203605899999957e+02
-2.987548430800000006e+02
-2.982977279500000236e+02
-2.955787175199999979e+02
-2.987640247599999839e+02
-2.953158330800000044e+02
-2.981323765600000115e+02
-2.966348346400000082e+02
-2.919336627600000043e+02
-2.920786914000000252e+02
-2.965438919399999804e+02
-2.980190573599999766e+02
-2.966558862399999725e+02
-2.955375074500000210e+02
-2.954459667099999933e+02
-2.986814901299999860e+02
-2.981323581300000001e+02
-2.933582962400000156e+02
-2.955462788400000136e+02
-2.911455634800000212e+02
-2.987729358899999852e+02
-2.983936617300000194e+02
-2.986590456999999788e+02
-2.916600031300000069e+02
-2.980465791299999978e+02
-2.947693726100000049e+02
-2.960932442600000059e+02
-2.979524263600000040e+02
-2.986763436100000035e+02
-2.986073884599999815e+02
-2.952460705600000210e+02
-2.972022237200000063e+02
-2.961484115000000088e+02
-2.921608466900000280e+02
-2.963964158599999905e+02
-2.986932035799999881e+02
-2.985056650600000125e+02
-2.925667060100000185e+02
-2.987055211100000065e+02
-2.961127914099999998e+02
-2.986307026299999734e+02
-2.970953216799999836e+02
-2.905808737799999903e+02
-2.984188806000000227e+02
-2.968858380199999942e+02
-2.986011340700000005e+02
-2.921680440200000248e+02
-2.986642842800000039e+02
