6.225443148000000093e+00 0.000000000000000000e+00 0.000000000000000000e+00 -1.694928425000000072e+00 8.121620095999999123e+00 0.000000000000000000e+00 -1.461869440999999936e+00 2.667083929999999992e+00 7.563603243000000198e+00
5.990561743999999855e+00 0.000000000000000000e+00 0.000000000000000000e+00 -1.719102311000000105e+00 8.059746362000000275e+00 0.000000000000000000e+00 -1.295337750000000065e+00 2.659068315999999932e+00 7.470645528999999563e+00
6.151711460999999659e+00 0.000000000000000000e+00 0.000000000000000000e+00 4.486214419999999592e+00 8.017856499000000525e+00 0.000000000000000000e+00 4.747015034000000355e+00 2.586029488999999959e+00 7.429367552000000430e+00
6.086142372000000300e+00 0.000000000000000000e+00 0.000000000000000000e+00 -1.485886599999999946e+00 8.024204342000000878e+00 0.000000000000000000e+00 -1.590425511000000069e+00 2.805100302000000045e+00 7.753002480000000141e+00
6.148290807000000413e+00 0.000000000000000000e+00 0.000000000000000000e+00 -1.497990256000000020e+00 8.066004326999999918e+00 0.000000000000000000e+00 -1.603810608000000082e+00 2.657864630999999811e+00 7.673807115999999873e+00
6.136026829000000404e+00 0.000000000000000000e+00 0.000000000000000000e+00 4.458207230000000187e+00 8.005826008999999743e+00 0.000000000000000000e+00 4.734076536999999973e+00 2.563558672000000094e+00 7.355125952999999939e+00
6.297198135000000363e+00 0.000000000000000000e+00 0.000000000000000000e+00 -1.418762430999999991e+00 8.257771114000000523e+00 0.000000000000000000e+00 -1.485000614999999913e+00 2.724519144999999920e+00 7.573358031999999795e+00
6.136026829000000404e+00 0.000000000000000000e+00 0.000000000000000000e+00 4.458207230000000187e+00 8.005826008999999743e+00 0.000000000000000000e+00 4.734076536999999973e+00 2.563558672000000094e+00 7.355125952999999939e+00
6.177769461999999656e+00 0.000000000000000000e+00 0.000000000000000000e+00 -1.372986773999999910e+00 8.209730232000000072e+00 0.000000000000000000e+00 -1.518645991999999945e+00 2.774689768000000001e+00 7.642118747999999684e+00
6.152502413999999753e+00 0.000000000000000000e+00 0.000000000000000000e+00 -1.423082659000000083e+00 8.080344358999999699e+00 0.000000000000000000e+00 -1.375223923999999931e+00 2.780447753999999883e+00 7.457006967999999958e+00
6.076530437999999812e+00 0.000000000000000000e+00 0.000000000000000000e+00 -1.872236221999999950e+00 7.887963658000000322e+00 0.000000000000000000e+00 -1.677730332999999963e+00 2.643818983000000067e+00 7.710672952000000357e+00
6.134652890999999997e+00 0.000000000000000000e+00 0.000000000000000000e+00 -1.502789324000000093e+00 7.916172668999999829e+00 0.000000000000000000e+00 -1.564312187000000076e+00 2.670354804000000026e+00 7.627218057000000329e+00
6.247071816000000055e+00 0.000000000000000000e+00 0.000000000000000000e+00 -1.439505013000000000e+00 8.311595195000000658e+00 0.000000000000000000e+00 -1.721296165999999905e+00 2.873889301000000174e+00 7.596505241000000019e+00
6.177197276000000237e+00 0.000000000000000000e+00 0.000000000000000000e+00 -1.389439625999999928e+00 8.144998214999999320e+00 0.000000000000000000e+00 -1.457959226000000053e+00 2.751002022999999852e+00 7.647395001999999664e+00
6.093039400000000327e+00 0.000000000000000000e+00 0.000000000000000000e+00 -1.446808446999999997e+00 7.914860967000000080e+00 0.000000000000000000e+00 -1.482193630999999900e+00 2.725253055000000035e+00 7.705161143999999851e+00
6.130620623000000435e+00 0.000000000000000000e+00 0.000000000000000000e+00 -1.697754065999999895e+00 8.009203411999999744e+00 0.000000000000000000e+00 -1.746375710999999997e+00 2.789485851999999877e+00 7.509043424999999772e+00
6.188639165999999747e+00 0.000000000000000000e+00 0.000000000000000000e+00 -1.429061093999999921e+00 7.976972399000000102e+00 0.000000000000000000e+00 -1.570056101000000037e+00 2.679802291000000114e+00 7.729249251999999792e+00
6.117381074999999946e+00 0.000000000000000000e+00 0.000000000000000000e+00 -1.488197639000000017e+00 8.169240291999999570e+00 0.000000000000000000e+00 -1.678679236000000019e+00 2.852071323000000103e+00 7.525183519999999682e+00
6.290340824000000275e+00 0.000000000000000000e+00 0.000000000000000000e+00 -1.492348323000000088e+00 8.133425572000000159e+00 0.000000000000000000e+00 -1.634405786000000083e+00 2.764448988999999912e+00 7.696824961999999992e+00
6.130779775999999792e+00 0.000000000000000000e+00 0.000000000000000000e+00 -1.584304600000000063e+00 7.948532607999999833e+00 0.000000000000000000e+00 -1.599561143000000074e+00 2.631377140000000114e+00 7.550821889999999925e+00
6.173121519000000390e+00 0.000000000000000000e+00 0.000000000000000000e+00 -1.504736843999999962e+00 8.024860929999999115e+00 0.000000000000000000e+00 -1.588750136000000035e+00 2.590009681000000175e+00 7.643660868999999636e+00
6.134723564999999823e+00 0.000000000000000000e+00 0.000000000000000000e+00 -1.384973161000000008e+00 7.967752751999999994e+00 0.000000000000000000e+00 -1.351423873999999969e+00 2.759647118000000177e+00 7.546679283999999654e+00
6.143642892999999994e+00 0.000000000000000000e+00 0.000000000000000000e+00 -1.466607420999999967e+00 8.059787296999999739e+00 0.000000000000000000e+00 -1.563123894999999930e+00 2.807369169999999858e+00 7.737459267000000196e+00
6.212892219000000438e+00 0.000000000000000000e+00 0.000000000000000000e+00 -1.348240778999999945e+00 8.275050353999999331e+00 0.000000000000000000e+00 -1.456472642000000040e+00 2.757293729000000138e+00 7.648661648000000035e+00
6.254856561999999620e+00 0.000000000000000000e+00 0.000000000000000000e+00 -1.587572063000000089e+00 8.110777837000000545e+00 0.000000000000000000e+00 -1.563742371000000020e+00 2.703521192999999823e+00 7.628686538000000184e+00
6.233088463999999718e+00 0.000000000000000000e+00 0.000000000000000000e+00 -1.705570747000000109e+00 8.170025023000000886e+00 0.000000000000000000e+00 -1.372617972000000020e+00 2.726015075999999926e+00 7.660211333000000344e+00
6.096712648999999651e+00 0.000000000000000000e+00 0.000000000000000000e+00 -1.397363283000000012e+00 7.906627732999999658e+00 0.000000000000000000e+00 -1.398343813000000102e+00 2.757758265000000097e+00 7.631678441000000035e+00
6.090375629000000401e+00 0.000000000000000000e+00 0.000000000000000000e+00 -1.449068020999999984e+00 8.106032357000000133e+00 0.000000000000000000e+00 -1.621133251000000053e+00 2.899680929000000074e+00 7.520956593000000190e+00
6.122138120999999877e+00 0.000000000000000000e+00 0.000000000000000000e+00 -1.462704097999999897e+00 8.154083443999999403e+00 0.000000000000000000e+00 -1.620190358000000108e+00 2.920362385999999866e+00 7.543620942000000440e+00
6.064262987000000216e+00 0.000000000000000000e+00 0.000000000000000000e+00 -1.491178936000000066e+00 7.942759241000000081e+00 0.000000000000000000e+00 -1.563370474999999926e+00 2.813855114999999962e+00 7.496702669000000263e+00
6.092263401000000300e+00 0.000000000000000000e+00 0.000000000000000000e+00 -1.216176810999999969e+00 8.182402037999999322e+00 0.000000000000000000e+00 -1.413329140000000095e+00 2.655884080999999952e+00 7.515866565999999693e+00
6.248077219999999876e+00 0.000000000000000000e+00 0.000000000000000000e+00 -1.398666406999999889e+00 8.168980415000000050e+00 0.000000000000000000e+00 -1.439704190999999911e+00 2.639034442999999897e+00 7.627205549000000140e+00
6.228306990000000098e+00 0.000000000000000000e+00 0.000000000000000000e+00 -1.356346303999999892e+00 8.102714060000000273e+00 0.000000000000000000e+00 -1.735174030000000034e+00 2.682129127000000057e+00 7.598147016000000420e+00
6.234829330000000169e+00 0.000000000000000000e+00 0.000000000000000000e+00 -1.550085570000000024e+00 8.154935019999999923e+00 0.000000000000000000e+00 -1.591551195000000085e+00 2.745627942000000044e+00 7.832049993000000043e+00
6.253345292999999749e+00 0.000000000000000000e+00 0.000000000000000000e+00 -1.361722521999999991e+00 8.278083712999999122e+00 0.000000000000000000e+00 -1.504543972000000007e+00 2.773263624999999788e+00 7.592382912999999789e+00
6.200670829999999967e+00 0.000000000000000000e+00 0.000000000000000000e+00 -1.509849586000000077e+00 8.117389669999999668e+00 0.000000000000000000e+00 -1.561992330000000040e+00 2.798565049000000027e+00 7.692849318999999575e+00
6.151577967999999785e+00 0.000000000000000000e+00 0.000000000000000000e+00 4.454987189999999764e+00 8.145130387000000027e+00 0.000000000000000000e+00 4.361266898000000225e+00 2.607445933999999799e+00 7.407143266000000281e+00
6.285796631000000190e+00 0.000000000000000000e+00 0.000000000000000000e+00 -1.440133107999999940e+00 8.113497337000000087e+00 0.000000000000000000e+00 -1.690017990999999942e+00 2.817135813999999794e+00 7.694551946999999892e+00
6.147821750000000307e+00 0.000000000000000000e+00 0.000000000000000000e+00 -1.635496617999999902e+00 7.927279680999999911e+00 0.000000000000000000e+00 -1.644036631000000082e+00 2.609826186999999909e+00 7.690464459000000197e+00
6.166252936000000240e+00 0.000000000000000000e+00 0.000000000000000000e+00 -1.611919821000000086e+00 7.962516883000000156e+00 0.000000000000000000e+00 -1.495458495000000054e+00 2.574009816999999867e+00 7.546213894000000089e+00
6.197867017000000089e+00 0.000000000000000000e+00 0.000000000000000000e+00 -1.459971686000000046e+00 8.072861486000000752e+00 0.000000000000000000e+00 -1.268865753999999901e+00 2.797034190000000198e+00 7.414210037000000142e+00
6.104726462000000353e+00 0.000000000000000000e+00 0.000000000000000000e+00 -1.493175531999999972e+00 8.054740951999999510e+00 0.000000000000000000e+00 -1.574571920999999985e+00 2.791773440000000051e+00 7.631578603000000349e+00
6.188552652000000265e+00 0.000000000000000000e+00 0.000000000000000000e+00 -1.612095108000000110e+00 8.230032523000000211e+00 0.000000000000000000e+00 -1.606117038999999913e+00 2.864897322000000024e+00 7.663757312999999627e+00
6.022755058000000439e+00 0.000000000000000000e+00 0.000000000000000000e+00 -1.179787396000000044e+00 8.103852161000000720e+00 0.000000000000000000e+00 -1.418952028000000087e+00 2.652768989000000133e+00 7.521281758999999845e+00
6.159707052999999988e+00 0.000000000000000000e+00 0.000000000000000000e+00 4.476855645999999744e+00 8.037759398000000388e+00 0.000000000000000000e+00 4.746603366999999629e+00 2.579761656000000070e+00 7.413315369000000210e+00
6.129062764000000385e+00 0.000000000000000000e+00 0.000000000000000000e+00 -1.435702593000000027e+00 7.969509601000000387e+00 0.000000000000000000e+00 -1.577672627999999966e+00 2.728709627000000193e+00 7.465509861000000136e+00
6.263174628999999882e+00 0.000000000000000000e+00 0.000000000000000000e+00 -1.628981999999999930e+00 8.133585776000000322e+00 0.000000000000000000e+00 -1.442429709000000004e+00 2.643310721000000196e+00 7.731400885000000223e+00
6.265908674000000289e+00 0.000000000000000000e+00 0.000000000000000000e+00 -1.468458698000000062e+00 8.064060940999999261e+00 0.000000000000000000e+00 -1.484098595000000076e+00 2.756384648000000048e+00 7.875770593000000375e+00
6.328558515000000106e+00 0.000000000000000000e+00 0.000000000000000000e+00 -1.389150810000000069e+00 8.288958211000000631e+00 0.000000000000000000e+00 -1.509859556999999963e+00 2.746417586000000188e+00 7.556762326000000307e+00
6.205088095999999886e+00 0.000000000000000000e+00 0.000000000000000000e+00 -1.593616098999999897e+00 8.092041310999999126e+00 0.000000000000000000e+00 -1.570394759999999890e+00 2.764521789999999868e+00 7.698756388999999700e+00
