1.545050000000000034e+00 8.928500000000000325e-01 6.411700000000000177e-01 3.123580000000000023e+00 1.893049999999999899e+00 3.293210000000000193e+00 4.841630000000000322e+00 2.681909999999999794e+00 5.683209999999999873e+00 3.107000000000000206e+00 3.516599999999999948e+00 5.826999999999999957e-01 4.640130000000000088e+00 4.554739999999999789e+00 3.162690000000000001e+00 -4.619000000000000189e-02 5.320899999999999963e+00 5.685819999999999652e+00 3.888749999999999929e+00 6.431939999999999991e+00 7.607699999999999463e-01 -3.051999999999999852e-02 7.229750000000000121e+00 2.979130000000000056e+00 1.447640000000000038e+00 7.985159999999999592e+00 5.468810000000000393e+00 4.693299999999999805e+00 9.574399999999999578e-01 7.273500000000000520e-01 3.509999999999999926e-02 1.819989999999999997e+00 3.204849999999999977e+00 1.636249999999999982e+00 2.676089999999999858e+00 5.674830000000000041e+00 -1.695399999999999963e-01 3.523839999999999861e+00 7.294199999999999573e-01 1.593509999999999982e+00 4.523119999999999585e+00 3.131969999999999921e+00 3.070329999999999782e+00 5.212089999999999890e+00 5.601230000000000153e+00 1.879990000000000050e+00 6.445660000000000167e+00 6.336500000000000465e-01 3.032070000000000043e+00 7.335160000000000124e+00 3.256870000000000154e+00 -1.610460000000000003e+00 8.087930000000000064e+00 5.663649999999999629e+00 4.497530000000000250e+00 8.116199999999999193e+00 4.383999999999999703e-02 1.651319999999999899e+00 9.525000000000000133e-01 2.404809999999999892e+00 3.248260000000000147e+00 1.842479999999999896e+00 5.083580000000000432e+00 1.441580000000000084e+00 2.683209999999999873e+00 2.153000000000000053e-02 3.221260000000000012e+00 3.600630000000000219e+00 2.528599999999999959e+00 4.660540000000000127e+00 4.439600000000000435e+00 5.106090000000000018e+00 1.437210000000000099e+00 7.809199999999999697e+00 7.437780000000000058e+00 -1.649899999999999922e+00 6.402770000000000294e+00 2.631330000000000169e+00 -1.291700000000000070e-01 7.110509999999999664e+00 4.949390000000000178e+00 1.699610000000000065e+00 2.704680000000000195e+00 7.511910000000000309e+00 4.761589999999999989e+00 9.869499999999999940e-01 2.560049999999999937e+00 -1.576119999999999965e+00 9.831989999999999341e+00 5.026469999999999771e+00 3.231419999999999959e+00 5.319609999999999950e+00 7.476659999999999862e+00 6.843000000000000471e-02 3.629570000000000185e+00 2.533910000000000107e+00 1.483929999999999971e+00 4.449589999999999712e+00 5.005010000000000403e+00 1.637739999999999974e+00 6.269339999999999691e+00 2.516869999999999941e+00 3.008999999999999897e+00 7.219330000000000247e+00 5.099549999999999805e+00
1.620730000000000004e+00 9.184900000000000286e-01 5.370899999999999563e-01 3.087470000000000159e+00 1.752159999999999940e+00 3.161160000000000192e+00 4.444490000000000052e+00 2.693589999999999929e+00 5.719020000000000437e+00 2.952220000000000066e+00 3.646599999999999842e+00 4.989100000000000201e-01 4.277350000000000207e+00 4.479079999999999728e+00 3.079229999999999912e+00 -1.071799999999999975e-01 5.172119999999999607e+00 5.553589999999999804e+00 -1.368130000000000068e+00 6.524530000000000385e+00 7.889300000000000201e-01 -2.563000000000000000e-02 7.269479999999999720e+00 3.353310000000000013e+00 1.578019999999999978e+00 8.127470000000000638e+00 5.506770000000000387e+00 4.402389999999999581e+00 9.098000000000000531e-01 6.608399999999999830e-01 1.405800000000000105e-01 1.775160000000000071e+00 3.203949999999999854e+00 1.605420000000000069e+00 2.640070000000000139e+00 5.493970000000000020e+00 1.323000000000000044e-02 3.475299999999999834e+00 5.136800000000000255e-01 1.464020000000000099e+00 4.536950000000000038e+00 2.963859999999999939e+00 2.939039999999999875e+00 5.325199999999999712e+00 5.618509999999999671e+00 1.826969999999999983e+00 6.524510000000000254e+00 4.701699999999999768e-01 2.909920000000000062e+00 7.045889999999999986e+00 3.154490000000000016e+00 -1.707130000000000036e+00 7.896090000000000053e+00 5.594640000000000057e+00 2.304000000000000145e-02 1.261599999999999944e-01 9.100000000000000450e-03 1.650549999999999962e+00 1.023509999999999920e+00 2.460550000000000015e+00 3.109350000000000058e+00 1.815239999999999965e+00 5.078170000000000073e+00 1.314200000000000090e-01 5.161719999999999864e+00 7.306939999999999991e+00 2.865050000000000097e+00 3.618790000000000173e+00 2.349489999999999856e+00 4.343160000000000132e+00 4.384260000000000268e+00 4.965090000000000003e+00 1.991230000000000055e+00 8.062089999999999534e+00 7.304870000000000196e+00 -1.566189999999999971e+00 6.295020000000000060e+00 2.645500000000000185e+00 2.493000000000000077e-02 7.119500000000000384e+00 5.198310000000000208e+00 1.670250000000000012e+00 2.663060000000000205e+00 7.367659999999999876e+00 2.914130000000000109e+00 8.886829999999999785e+00 2.569980000000000153e+00 -1.658779999999999921e+00 9.706810000000000827e+00 5.020059999999999967e+00 4.483830000000000204e+00 2.542980000000000018e+00 1.414400000000000102e-01 -8.443000000000000504e-02 3.611460000000000115e+00 2.362909999999999844e+00 1.435380000000000100e+00 4.423659999999999926e+00 5.007760000000000211e+00 1.265439999999999898e+00 6.381499999999999950e+00 2.451550000000000118e+00 2.928879999999999928e+00 6.943240000000000300e+00 5.024029999999999774e+00
1.495789999999999953e+00 7.770399999999999530e-01 5.791300000000000336e-01 3.117929999999999868e+00 1.680299999999999905e+00 3.041669999999999874e+00 4.589669999999999916e+00 2.532550000000000079e+00 5.543479999999999741e+00 2.994400000000000173e+00 3.465339999999999865e+00 5.754000000000000226e-01 4.600660000000000416e+00 4.412609999999999921e+00 2.974359999999999893e+00 6.184989999999999988e+00 5.209679999999999644e+00 5.528800000000000381e+00 9.912129999999999441e+00 6.502279999999999838e+00 8.220100000000000184e-01 6.098329999999999806e+00 7.079469999999999708e+00 2.955249999999999932e+00 7.669310000000000294e+00 7.941589999999999705e+00 5.521250000000000213e+00 4.621559999999999668e+00 1.003160000000000052e+00 6.856499999999999817e-01 6.233419999999999739e+00 1.842750000000000110e+00 3.149109999999999854e+00 7.776760000000000339e+00 2.637809999999999988e+00 5.523170000000000357e+00 6.153299999999999770e+00 3.579110000000000014e+00 5.084400000000000031e-01 7.719769999999999577e+00 4.388040000000000163e+00 3.047880000000000145e+00 9.347189999999999444e+00 5.258510000000000240e+00 5.443710000000000271e+00 8.149279999999999191e+00 6.461759999999999948e+00 7.234599999999999920e-01 9.154949999999999477e+00 7.188850000000000406e+00 3.215829999999999966e+00 1.087303999999999959e+01 7.999060000000000059e+00 5.603180000000000049e+00 1.080153999999999925e+01 2.696660000000000057e+00 7.408159999999999634e+00 7.721560000000000201e+00 8.778500000000000192e-01 2.472869999999999902e+00 1.371366000000000085e+01 9.699180000000000135e+00 4.886320000000000441e+00 6.243009999999999948e+00 5.105830000000000091e+00 7.421529999999999738e+00 3.082279999999999909e+00 3.437120000000000175e+00 2.472069999999999990e+00 4.733959999999999724e+00 4.260849999999999582e+00 4.858679999999999666e+00 7.704320000000000057e+00 7.746690000000000076e+00 7.332410000000000316e+00 1.067343999999999937e+01 6.230999999999999872e+00 2.580659999999999954e+00 6.177050000000000374e+00 6.972030000000000172e+00 4.946410000000000196e+00 3.153430000000000177e+00 8.366999999999999438e-02 2.525000000000000161e-02 4.711820000000000341e+00 9.341500000000000359e-01 2.614640000000000075e+00 1.067943999999999960e+01 9.748920000000000030e+00 5.034130000000000216e+00 9.404529999999999390e+00 5.225290000000000212e+00 7.355330000000000368e+00 6.157110000000000305e+00 3.545929999999999804e+00 2.383840000000000181e+00 7.804310000000000080e+00 4.413439999999999586e+00 4.903769999999999740e+00 7.684359999999999857e+00 6.232660000000000089e+00 2.642079999999999984e+00 9.254680000000000462e+00 7.120320000000000427e+00 5.046109999999999651e+00
1.523230000000000084e+00 9.764000000000000457e-01 5.316899999999999959e-01 3.257369999999999877e+00 2.028999999999999915e+00 3.165719999999999867e+00 4.618520000000000181e+00 2.807380000000000209e+00 5.858139999999999681e+00 2.927299999999999791e+00 3.730300000000000171e+00 5.955799999999999983e-01 4.602780000000000094e+00 4.609549999999999592e+00 3.207780000000000076e+00 -1.486300000000000121e-01 5.380110000000000170e+00 5.839480000000000004e+00 4.241360000000000241e+00 6.404829999999999579e+00 7.016000000000000014e-01 -6.279999999999999472e-02 7.243560000000000443e+00 3.251279999999999948e+00 1.360489999999999977e+00 8.080819999999999226e+00 5.947720000000000340e+00 4.695479999999999876e+00 8.656000000000000361e-01 6.990100000000000202e-01 1.568599999999999994e-01 1.887100000000000000e+00 3.240629999999999900e+00 1.677999999999999936e+00 2.558629999999999960e+00 5.777420000000000222e+00 -7.811999999999999500e-02 3.432469999999999910e+00 5.781500000000000528e-01 1.535109999999999975e+00 4.481530000000000236e+00 3.130349999999999966e+00 2.986769999999999925e+00 5.382390000000000008e+00 5.688250000000000028e+00 1.317509999999999959e+00 6.374290000000000234e+00 7.277599999999999625e-01 2.982390000000000096e+00 7.237860000000000404e+00 3.290960000000000107e+00 -1.666959999999999997e+00 8.005380000000000607e+00 5.324430000000000440e+00 -1.321520000000000028e+00 7.974219999999999864e+00 1.467499999999999916e-01 1.714239999999999986e+00 1.179349999999999898e+00 2.540090000000000181e+00 1.818640000000000034e+00 9.810090000000000643e+00 5.220539999999999736e+00 -1.040800000000000058e-01 5.637880000000000003e+00 7.736329999999999707e+00 3.025659999999999794e+00 3.792889999999999873e+00 2.345990000000000020e+00 4.443730000000000402e+00 4.546000000000000263e+00 5.138659999999999783e+00 2.649929999999999897e+00 5.402669999999999639e+00 8.820999999999999674e-02 4.561770000000000103e+00 6.225769999999999804e+00 2.666939999999999866e+00 -1.386999999999999900e-01 7.030809999999999782e+00 5.096269999999999634e+00 1.072499999999999981e-01 1.081555000000000000e+01 7.730059999999999931e+00 3.300209999999999866e+00 8.994830000000000325e+00 2.775889999999999969e+00 -1.373040000000000038e+00 9.770540000000000447e+00 5.313100000000000378e+00 2.937349999999999905e+00 5.277289999999999814e+00 7.688229999999999897e+00 -6.905000000000000027e-02 3.644960000000000200e+00 2.513619999999999965e+00 1.535600000000000076e+00 4.353399999999999714e+00 5.117079999999999629e+00 1.353990000000000027e+00 6.261470000000000091e+00 2.692000000000000171e+00 2.837140000000000217e+00 7.197869999999999990e+00 5.232190000000000119e+00
1.473549999999999915e+00 8.498400000000000398e-01 6.375800000000000356e-01 3.065129999999999910e+00 1.802170000000000050e+00 3.260440000000000005e+00 4.582349999999999923e+00 2.600779999999999870e+00 5.819549999999999557e+00 3.019200000000000106e+00 3.398649999999999949e+00 7.136599999999999611e-01 4.729070000000000107e+00 4.496209999999999596e+00 3.318960000000000132e+00 -7.700000000000000247e-03 5.505889999999999951e+00 5.894610000000000127e+00 4.262590000000000323e+00 6.367460000000000342e+00 8.311699999999999644e-01 2.877000000000000043e-02 7.147750000000000270e+00 3.171670000000000211e+00 1.567059999999999897e+00 8.080949999999999633e+00 5.756420000000000314e+00 4.472360000000000113e+00 8.922099999999999476e-01 5.700199999999999712e-01 -7.928000000000000325e-02 1.725970000000000004e+00 3.237989999999999924e+00 1.489970000000000017e+00 2.627120000000000122e+00 5.735179999999999723e+00 -1.603199999999999903e-01 3.475319999999999965e+00 7.294699999999999518e-01 1.602889999999999926e+00 4.458639999999999937e+00 3.162619999999999987e+00 3.007169999999999899e+00 5.339470000000000383e+00 5.674089999999999634e+00 1.865429999999999922e+00 6.274390000000000356e+00 6.045899999999999608e-01 3.046959999999999891e+00 7.186209999999999987e+00 3.164089999999999847e+00 -1.571420000000000039e+00 8.063700000000000756e+00 5.625630000000000130e+00 6.085200000000000387e+00 2.605000000000000024e-02 1.813000000000000028e-02 1.628600000000000048e+00 9.816300000000000026e-01 2.543820000000000192e+00 3.070879999999999832e+00 1.793360000000000065e+00 5.147479999999999833e+00 1.425089999999999968e+00 2.709340000000000082e+00 1.708199999999999996e-01 3.271679999999999922e+00 3.609360000000000124e+00 2.501079999999999970e+00 -1.461529999999999996e+00 4.548399999999999999e+00 5.198389999999999844e+00 1.586279999999999912e+00 7.873750000000000249e+00 7.585659999999999847e+00 4.553790000000000227e+00 6.275269999999999904e+00 2.657630000000000159e+00 2.630000000000000046e-02 7.238450000000000273e+00 5.153500000000000192e+00 -1.063599999999999962e-01 1.062569000000000052e+01 7.515279999999999738e+00 4.532099999999999795e+00 8.795300000000000340e-01 2.486330000000000151e+00 -1.543099999999999916e+00 9.783319999999999794e+00 5.069630000000000081e+00 2.968919999999999781e+00 5.291249999999999787e+00 7.616850000000000342e+00 3.550999999999999990e-02 3.533970000000000056e+00 2.550100000000000033e+00 1.404519999999999991e+00 4.492569999999999730e+00 5.014569999999999972e+00 1.529770000000000074e+00 6.231160000000000032e+00 2.515420000000000211e+00 3.103460000000000107e+00 7.145400000000000418e+00 5.079869999999999663e+00
1.530399999999999983e+00 7.686399999999999899e-01 5.944199999999999484e-01 3.093539999999999957e+00 1.725249999999999950e+00 3.068280000000000118e+00 4.676000000000000156e+00 2.568029999999999813e+00 5.518989999999999618e+00 2.988989999999999814e+00 3.469440000000000079e+00 5.875500000000000167e-01 4.588379999999999903e+00 4.394860000000000433e+00 3.041970000000000063e+00 6.177170000000000272e+00 5.218639999999999723e+00 5.488620000000000054e+00 9.902359999999999829e+00 6.428460000000000285e+00 7.593499999999999694e-01 6.081419999999999604e+00 7.016009999999999636e+00 2.965329999999999799e+00 7.631289999999999907e+00 7.875820000000000043e+00 5.438740000000000130e+00 4.607029999999999959e+00 1.002920000000000034e+00 6.391400000000000414e-01 6.202210000000000001e+00 1.756140000000000034e+00 3.079159999999999897e+00 7.775400000000000311e+00 2.595190000000000108e+00 5.533419999999999561e+00 6.126999999999999780e+00 3.425089999999999968e+00 6.548699999999999521e-01 7.689960000000000129e+00 4.419159999999999755e+00 3.061580000000000190e+00 9.255330000000000723e+00 5.254990000000000272e+00 5.509870000000000267e+00 8.274969999999999715e+00 6.464080000000000048e+00 7.821299999999999919e-01 9.162399999999999878e+00 7.130930000000000213e+00 3.172719999999999985e+00 1.076089999999999947e+01 7.924489999999999590e+00 5.387739999999999974e+00 1.079190000000000005e+01 2.596999999999999975e+00 7.354639999999999844e+00 6.027770000000000294e+00 8.841160000000000352e+00 2.431500000000000217e+00 7.608290000000000219e+00 9.688050000000000495e+00 4.892159999999999620e+00 6.203890000000000349e+00 5.160919999999999952e+00 7.327040000000000219e+00 3.053230000000000111e+00 3.500710000000000210e+00 2.429769999999999985e+00 4.638600000000000279e+00 4.354339999999999655e+00 4.890100000000000335e+00 7.612659999999999982e+00 7.684910000000000352e+00 7.206220000000000070e+00 1.059779999999999944e+01 6.197969999999999757e+00 2.491849999999999898e+00 6.104989999999999917e+00 6.997399999999999842e+00 4.846580000000000332e+00 7.880679999999999907e+00 2.629630000000000134e+00 7.352590000000000181e+00 4.665230000000000210e+00 8.873299999999999521e-01 2.476770000000000138e+00 1.070010000000000083e+01 9.718989999999999796e+00 4.947709999999999830e+00 9.324460000000000193e+00 5.284830000000000361e+00 7.340040000000000120e+00 6.150750000000000384e+00 3.556909999999999794e+00 2.436220000000000052e+00 7.729840000000000266e+00 4.367700000000000138e+00 4.898699999999999832e+00 7.699760000000000382e+00 6.211260000000000225e+00 2.506019999999999914e+00 9.235340000000000771e+00 7.045679999999999943e+00 4.962460000000000093e+00
1.622109999999999941e+00 7.759099999999999886e-01 4.585199999999999831e-01 2.980710000000000193e+00 1.754229999999999956e+00 3.110749999999999904e+00 4.892719999999999736e+00 2.747850000000000126e+00 5.694899999999999629e+00 3.259170000000000122e+00 3.769270000000000120e+00 6.544900000000000162e-01 4.713809999999999611e+00 4.477909999999999613e+00 3.128229999999999844e+00 1.886599999999999944e-01 5.610940000000000261e+00 5.759549999999999947e+00 4.879489999999999661e+00 6.454850000000000421e+00 5.340300000000000047e-01 2.256499999999999895e-01 7.187079999999999913e+00 3.083270000000000177e+00 1.801060000000000105e+00 8.246159999999999712e+00 5.496150000000000091e+00 4.719219999999999970e+00 1.000899999999999901e+00 5.832600000000000007e-01 -1.397799999999999876e-01 1.928169999999999940e+00 3.234960000000000058e+00 1.711090000000000000e+00 2.780850000000000044e+00 5.615890000000000271e+00 5.433999999999999941e-02 3.614720000000000155e+00 6.995099999999999651e-01 1.404120000000000035e+00 4.665329999999999977e+00 3.154689999999999994e+00 3.380129999999999857e+00 5.562140000000000306e+00 5.717299999999999827e+00 2.103790000000000049e+00 6.668249999999999567e+00 6.246500000000000385e-01 3.454499999999999904e+00 7.303169999999999717e+00 3.252730000000000121e+00 -1.248229999999999951e+00 8.354749999999999233e+00 5.416280000000000427e+00 4.752690000000000303e+00 2.722989999999999799e+00 7.501260000000000261e+00 -1.828500000000000125e-01 9.066280000000000783e+00 2.484560000000000102e+00 3.262859999999999872e+00 1.825649999999999995e+00 5.065210000000000434e+00 1.718329999999999913e+00 2.862519999999999953e+00 1.317699999999999982e-01 3.158630000000000049e+00 3.544929999999999914e+00 2.574390000000000178e+00 -1.423470000000000013e+00 4.636890000000000178e+00 5.132139999999999702e+00 1.879580000000000028e+00 8.174160000000000537e+00 7.427349999999999675e+00 -1.362710000000000088e+00 6.166290000000000049e+00 2.370540000000000092e+00 2.239500000000000102e-01 7.227640000000000065e+00 4.975799999999999557e+00 3.168849999999999945e+00 1.330099999999999894e-01 2.298000000000000043e-02 3.103489999999999860e+00 9.064759999999999707e+00 2.816570000000000018e+00 7.593999999999999362e-02 1.863660000000000094e+00 5.137660000000000338e+00 4.802369999999999806e+00 2.821530000000000094e+00 1.487700000000000133e-01 -1.051900000000000057e-01 3.628929999999999989e+00 2.489139999999999908e+00 1.676160000000000094e+00 4.528349999999999653e+00 5.144129999999999647e+00 1.936339999999999950e+00 6.325919999999999987e+00 2.383160000000000167e+00 3.271209999999999951e+00 7.371109999999999829e+00 5.041730000000000267e+00
1.530399999999999983e+00 7.686399999999999899e-01 5.944199999999999484e-01 3.093539999999999957e+00 1.725249999999999950e+00 3.068280000000000118e+00 4.676000000000000156e+00 2.568029999999999813e+00 5.518989999999999618e+00 2.988989999999999814e+00 3.469440000000000079e+00 5.875500000000000167e-01 4.588379999999999903e+00 4.394860000000000433e+00 3.041970000000000063e+00 6.177170000000000272e+00 5.218639999999999723e+00 5.488620000000000054e+00 9.902359999999999829e+00 6.428460000000000285e+00 7.593499999999999694e-01 6.081419999999999604e+00 7.016009999999999636e+00 2.965329999999999799e+00 7.631289999999999907e+00 7.875820000000000043e+00 5.438740000000000130e+00 4.607029999999999959e+00 1.002920000000000034e+00 6.391400000000000414e-01 6.202210000000000001e+00 1.756140000000000034e+00 3.079159999999999897e+00 7.775400000000000311e+00 2.595190000000000108e+00 5.533419999999999561e+00 6.126999999999999780e+00 3.425089999999999968e+00 6.548699999999999521e-01 7.689960000000000129e+00 4.419159999999999755e+00 3.061580000000000190e+00 9.255330000000000723e+00 5.254990000000000272e+00 5.509870000000000267e+00 8.274969999999999715e+00 6.464080000000000048e+00 7.821299999999999919e-01 9.162399999999999878e+00 7.130930000000000213e+00 3.172719999999999985e+00 1.076089999999999947e+01 7.924489999999999590e+00 5.387739999999999974e+00 1.079190000000000005e+01 2.596999999999999975e+00 7.354639999999999844e+00 6.027770000000000294e+00 8.841160000000000352e+00 2.431500000000000217e+00 7.608290000000000219e+00 9.688050000000000495e+00 4.892159999999999620e+00 6.203890000000000349e+00 5.160919999999999952e+00 7.327040000000000219e+00 3.053230000000000111e+00 3.500710000000000210e+00 2.429769999999999985e+00 4.638600000000000279e+00 4.354339999999999655e+00 4.890100000000000335e+00 7.612659999999999982e+00 7.684910000000000352e+00 7.206220000000000070e+00 1.059779999999999944e+01 6.197969999999999757e+00 2.491849999999999898e+00 6.104989999999999917e+00 6.997399999999999842e+00 4.846580000000000332e+00 7.880679999999999907e+00 2.629630000000000134e+00 7.352590000000000181e+00 4.665230000000000210e+00 8.873299999999999521e-01 2.476770000000000138e+00 1.070010000000000083e+01 9.718989999999999796e+00 4.947709999999999830e+00 9.324460000000000193e+00 5.284830000000000361e+00 7.340040000000000120e+00 6.150750000000000384e+00 3.556909999999999794e+00 2.436220000000000052e+00 7.729840000000000266e+00 4.367700000000000138e+00 4.898699999999999832e+00 7.699760000000000382e+00 6.211260000000000225e+00 2.506019999999999914e+00 9.235340000000000771e+00 7.045679999999999943e+00 4.962460000000000093e+00
1.559579999999999966e+00 5.992699999999999694e-01 6.513900000000000245e-01 3.072670000000000012e+00 1.868880000000000097e+00 3.161099999999999799e+00 4.617460000000000342e+00 2.795350000000000001e+00 5.637880000000000003e+00 3.171199999999999797e+00 3.639040000000000052e+00 8.303199999999999470e-01 4.678589999999999804e+00 4.588899999999999757e+00 3.140320000000000000e+00 -8.293000000000000371e-02 5.567680000000000184e+00 5.854510000000000325e+00 4.605279999999999596e+00 6.379839999999999733e+00 6.547800000000000287e-01 8.784000000000000141e-02 7.319499999999999673e+00 3.162370000000000125e+00 1.783570000000000100e+00 8.169700000000000628e+00 5.728539999999999743e+00 4.606559999999999988e+00 1.096910000000000052e+00 4.751500000000000168e-01 4.170000000000000095e-02 1.943529999999999980e+00 3.084740000000000038e+00 1.502699999999999925e+00 2.907500000000000195e+00 5.714999999999999858e+00 8.165000000000000036e-02 3.360739999999999839e+00 8.304500000000000215e-01 1.676039999999999974e+00 4.604029999999999845e+00 3.220509999999999984e+00 3.169379999999999864e+00 5.544529999999999959e+00 5.579740000000000144e+00 2.118609999999999882e+00 6.488649999999999807e+00 6.655100000000000460e-01 3.212549999999999795e+00 7.460060000000000358e+00 3.268749999999999822e+00 -1.489360000000000017e+00 8.309530000000000527e+00 5.605649999999999800e+00 -2.856320000000000192e+00 1.090329000000000015e+01 7.489749999999999908e+00 1.888799999999999923e-01 9.151699999999999946e+00 2.600130000000000052e+00 1.682239999999999958e+00 1.001654000000000089e+01 5.196130000000000138e+00 5.696999999999999981e-02 5.405380000000000074e+00 7.631479999999999819e+00 3.210729999999999862e+00 3.629560000000000120e+00 2.707180000000000142e+00 4.678020000000000067e+00 4.563100000000000378e+00 5.085630000000000095e+00 1.815760000000000041e+00 7.925480000000000302e+00 7.485439999999999650e+00 4.695070000000000299e+00 6.324169999999999625e+00 2.587060000000000137e+00 -5.897000000000000158e-02 7.335490000000000066e+00 5.195610000000000284e+00 1.907540000000000013e+00 8.099199999999999733e+00 1.220000000000000077e-02 4.668160000000000309e+00 1.037860000000000005e+00 2.591009999999999813e+00 -5.100999999999999979e-02 1.866330000000000044e+00 5.034209999999999852e+00 4.659200000000000230e+00 2.741049999999999986e+00 2.690000000000000117e-03 6.079999999999999988e-02 3.863140000000000018e+00 2.487709999999999866e+00 1.663759999999999906e+00 4.683209999999999873e+00 5.081279999999999575e+00 1.681629999999999958e+00 6.449639999999999596e+00 2.530229999999999979e+00 3.206850000000000200e+00 7.355649999999999800e+00 5.045090000000000074e+00
1.497120000000000006e+00 7.153699999999999504e-01 5.833500000000000352e-01 3.179190000000000182e+00 1.899080000000000101e+00 3.125799999999999912e+00 4.738170000000000215e+00 2.853169999999999984e+00 5.549319999999999808e+00 3.018240000000000034e+00 3.489770000000000039e+00 5.941300000000000470e-01 4.778850000000000264e+00 4.457539999999999836e+00 3.111299999999999955e+00 1.081000000000000016e-01 5.470650000000000013e+00 5.561849999999999739e+00 4.346680000000000099e+00 6.326089999999999769e+00 5.580100000000000060e-01 2.288300000000000056e-01 7.213149999999999729e+00 3.031140000000000168e+00 1.560829999999999940e+00 8.220660000000000522e+00 5.469960000000000377e+00 4.724759999999999849e+00 1.013670000000000071e+00 6.578600000000000003e-01 1.645800000000000041e-01 1.932649999999999979e+00 3.098549999999999915e+00 1.715189999999999992e+00 2.727339999999999876e+00 5.657140000000000057e+00 4.635000000000000231e-02 3.567159999999999886e+00 6.821700000000000541e-01 1.734909999999999952e+00 4.536760000000000126e+00 3.075349999999999806e+00 3.103489999999999860e+00 5.513379999999999725e+00 5.659040000000000070e+00 2.113160000000000149e+00 6.494650000000000034e+00 6.359099999999999753e-01 3.321110000000000007e+00 7.148159999999999847e+00 3.143609999999999793e+00 -1.420239999999999947e+00 8.170109999999999317e+00 5.321830000000000283e+00 4.658990000000000187e+00 2.783290000000000042e+00 7.443830000000000169e+00 2.783399999999999763e-01 8.926800000000000068e+00 2.515019999999999811e+00 3.145389999999999908e+00 1.891219999999999901e+00 4.926099999999999923e+00 1.459440000000000071e+00 2.627689999999999859e+00 9.134000000000000452e-02 3.223040000000000127e+00 3.577059999999999906e+00 2.492420000000000080e+00 4.715609999999999857e+00 4.563839999999999897e+00 4.927299999999999791e+00 1.788839999999999986e+00 7.998660000000000103e+00 7.329850000000000421e+00 -1.306119999999999948e+00 6.234409999999999563e+00 2.438730000000000064e+00 1.019000000000000045e-01 7.218609999999999971e+00 4.968810000000000393e+00 3.127959999999999852e+00 1.247700000000000059e-01 1.169000000000000074e-02 3.344520000000000159e+00 9.020519999999999428e+00 2.627559999999999896e+00 7.430000000000000493e-02 1.892069999999999919e+00 5.043929999999999580e+00 4.617049999999999876e+00 2.762550000000000061e+00 7.782000000000000028e-02 9.021999999999999464e-02 3.645789999999999864e+00 2.521399999999999864e+00 1.582610000000000072e+00 4.560979999999999812e+00 5.044100000000000250e+00 1.821579999999999977e+00 6.241229999999999833e+00 2.374439999999999884e+00 3.246449999999999836e+00 7.168870000000000076e+00 4.994570000000000398e+00
1.699920000000000098e+00 8.838700000000000445e-01 8.091800000000000104e-01 2.774579999999999824e+00 1.810820000000000096e+00 3.150160000000000071e+00 4.451319999999999943e+00 2.425870000000000193e+00 5.813320000000000043e+00 2.949469999999999814e+00 3.411869999999999958e+00 6.595999999999999641e-01 4.194270000000000387e+00 4.337340000000000195e+00 3.157810000000000006e+00 -3.582099999999999729e-01 5.042760000000000353e+00 5.880279999999999951e+00 4.209859999999999935e+00 6.278669999999999973e+00 5.429100000000000037e-01 -3.521799999999999931e-01 6.993249999999999744e+00 3.175670000000000215e+00 1.182150000000000034e+00 7.805570000000000341e+00 5.708879999999999733e+00 4.700940000000000119e+00 9.106400000000000050e-01 6.445199999999999818e-01 -1.577600000000000113e-01 1.768010000000000081e+00 3.264549999999999841e+00 1.436749999999999972e+00 2.469990000000000130e+00 5.897450000000000081e+00 -5.091999999999999998e-02 3.621820000000000039e+00 7.047999999999999821e-01 1.178919999999999968e+00 4.481119999999999770e+00 3.178710000000000147e+00 2.686669999999999892e+00 5.249579999999999913e+00 5.666970000000000063e+00 1.505379999999999940e+00 6.519560000000000244e+00 7.762900000000000356e-01 2.783599999999999852e+00 7.232929999999999637e+00 3.103050000000000086e+00 -1.807430000000000092e+00 7.742329999999999934e+00 5.552439999999999820e+00 -1.431869999999999976e+00 2.729729999999999990e+00 7.622849999999999682e+00 -6.224600000000000133e-01 8.700150000000000716e+00 2.671549999999999869e+00 1.026510000000000034e+00 9.489119999999999777e+00 5.138180000000000192e+00 1.366430000000000033e+00 2.569380000000000219e+00 1.380000000000000115e-01 2.645030000000000214e+00 3.561729999999999841e+00 2.541150000000000020e+00 4.260880000000000223e+00 4.304380000000000095e+00 5.149910000000000210e+00 2.851980000000000182e+00 5.236489999999999867e+00 2.084000000000000088e-02 4.232440000000000424e+00 6.097199999999999953e+00 2.395309999999999828e+00 -3.412200000000000233e-01 6.799240000000000173e+00 5.132030000000000314e+00 3.196979999999999933e+00 3.723699999999999788e-01 7.233000000000000540e-02 4.422679999999999723e+00 1.064610000000000056e+00 2.484030000000000182e+00 -1.987020000000000008e+00 9.483489999999999753e+00 5.276489999999999903e+00 4.569420000000000037e+00 2.837759999999999838e+00 9.700000000000000289e-03 -2.563799999999999968e-01 3.416910000000000114e+00 2.550030000000000019e+00 1.186669999999999892e+00 4.275009999999999977e+00 5.207910000000000039e+00 1.282729999999999926e+00 6.130169999999999675e+00 2.611000000000000210e+00 2.725709999999999855e+00 7.067230000000000345e+00 4.985769999999999591e+00