-2.783539933800000199e+02
-2.739163386999999830e+02
-2.793105360999999789e+02
-2.740581936699999801e+02
-2.783228422600000158e+02
-2.807039416100000153e+02
-2.743426737899999921e+02
-2.807039416100000153e+02
-2.759235631500000068e+02
-2.783295628500000021e+02
-2.746682547600000248e+02
-2.768603566099999966e+02
-2.746956614599999966e+02
-2.754520744000000150e+02
-2.778465538799999877e+02
-2.774163662899999849e+02
-2.746387210400000072e+02
-2.753443175300000121e+02
-2.771223779300000274e+02
-2.745210906899999941e+02
-2.779518391400000041e+02
-2.781688796099999763e+02
-2.740664853000000107e+02
-2.733860963899999774e+02
-2.748115515599999981e+02
-2.750693659699999785e+02
-2.781763003600000275e+02
-2.805865831500000240e+02
-2.806932704100000251e+02
-2.778233113900000149e+02
-2.741851515999999833e+02
-2.775764943300000027e+02
-2.773170106000000033e+02
-2.780809966300000156e+02
-2.738943014299999845e+02
-2.803786143199999970e+02
-2.772430996200000095e+02
-2.752822733400000175e+02
-2.753132317299999841e+02
-2.728129698100000269e+02
-2.752209197000000245e+02
-2.780172212200000104e+02
-2.770770128899999918e+02
-2.743993187199999966e+02
-2.772753750100000047e+02
-2.752394793400000026e+02
-2.768244757100000015e+02
-2.765008847600000195e+02
-2.734934900100000164e+02
-2.803516328900000190e+02
