-4.175697455900000250e+02
-4.155722958299999732e+02
-4.126311996399999771e+02
-4.148721143700000198e+02
-4.155776031999999987e+02
-4.149456024200000002e+02
-4.130613462000000027e+02
-4.174232531299999778e+02
-4.153171430599999780e+02
-4.136731541199999924e+02
-4.169085652499999810e+02
-4.175895894000000226e+02
-4.181742622400000187e+02
-4.175150242299999945e+02
-4.130176022699999976e+02
-4.139828029500000071e+02
-4.141597781799999893e+02
-4.129501416400000267e+02
-4.161113136700000155e+02
-4.192236455500000147e+02
-4.134540037599999778e+02
-4.125072885399999905e+02
-4.154574380399999995e+02
-4.134014625099999876e+02
-4.135662231200000178e+02
-4.140639117100000135e+02
-4.128472603600000070e+02
-4.156607640899999865e+02
-4.128195254299999988e+02
-4.147615850899999828e+02
-4.130207823499999904e+02
-4.169206324900000027e+02
-4.144432944800000200e+02
-4.150612421899999731e+02
-4.149822079099999996e+02
-4.137978521000000001e+02
-4.139870123599999943e+02
-4.150715938399999914e+02
-4.139326476300000195e+02
-4.144347777500000234e+02
-4.140634018100000162e+02
-4.153967382700000144e+02
-4.187449295299999790e+02
-4.138725724299999911e+02
-4.133786333200000058e+02
-4.159051282899999933e+02
-4.139315236200000072e+02
-4.148037673599999948e+02
-4.121030809499999918e+02
-4.173926121399999829e+02
