1.436838999999999977e+00 1.155970000000000053e-01 5.820419999999999483e-01 5.813869999999999871e-01 -1.818343000000000043e+00 3.244168999999999858e+00 -1.318265000000000020e+00 1.152799999999999936e-01 -7.784259999999999513e-01 -1.846009999999999873e-01 2.529830000000000023e+00 5.734000000000000208e-02 -8.008140000000000258e-01 3.103040000000000243e-01 -5.922349999999999559e-01 -1.260340000000000071e-01 -2.396735000000000060e+00 1.641102999999999978e+00 -3.969309999999999783e-01 -1.498958999999999930e+00 -1.743951999999999947e+00 1.152724000000000082e+00 9.383979999999999544e-01 -5.898999999999999730e-03 -1.115809000000000051e+00 -9.774199999999999555e-02 5.856440000000000534e-01 -1.299654000000000087e+00 -1.439448999999999979e+00 6.620859999999999523e-01 9.507139999999999480e-01 5.971910000000000274e-01 -8.130570000000000297e-01 -3.828259999999999996e-01 6.399310000000000276e-01 -1.041590000000000016e-01 3.390770000000000173e-01 1.387200000000000100e-01 -6.106899999999999551e-01 1.344854999999999912e+00 -1.126697999999999977e+00 5.472920000000000007e-01 4.820150000000000268e-01 -6.385410000000000252e-01 -7.304319999999999702e-01 -5.867620000000000058e-01 1.216547999999999963e+00 6.791979999999999684e-01 -1.898611000000000049e+00 -1.551053999999999933e+00 1.970773000000000108e+00 -1.760161000000000087e+00 -8.054179999999999673e-01 1.245713000000000070e+00 -6.586999999999999522e-01 2.038927999999999852e+00 -2.703740000000000032e-01 -2.987790000000000168e-01 -1.196131999999999973e+00 -1.605393000000000070e+00 -7.242920000000000469e-01 2.186249999999999805e+00 1.476493000000000055e+00 -2.636769999999999947e-01 2.257800000000000085e-01 -4.379500000000000060e-01 1.123890000000000028e-01 -5.897600000000000064e-02 7.279229999999999867e-01 1.454194999999999904e+00 -2.108842999999999801e+00 1.203626000000000085e+00 5.604519999999999502e-01 -1.450289999999999913e-01 -5.753129999999999633e-01 -1.852499999999999980e-01 8.718829999999999636e-01 6.717509999999999870e-01 2.404978999999999978e+00 2.080349999999999977e-01 4.806090000000000084e-01 -1.470247000000000082e+00 3.791410000000000058e-01 3.997569999999999735e-01 -7.151819999999999844e-01 2.645290000000000141e-01 -7.377620000000000289e-01 -2.255393000000000203e+00 8.867099999999999982e-01 1.420819000000000054e+00 -2.854171000000000014e+00 3.294210000000000194e-01 -4.158850000000000047e-01 -7.658099999999999630e-02 6.256739999999999524e-01 -3.234130000000000060e-01 -7.101359999999999895e-01 6.831399999999999695e-01 3.109810000000000074e-01 -5.904500000000000026e-02 3.899940000000000073e-01 7.390360000000000262e-01 1.934155000000000069e+00 2.692800000000000193e-01 -2.601660000000000084e-01 8.291370000000000129e-01 -1.190704999999999902e+00 -2.662584999999999980e+00 5.983699999999999575e-01 -2.256768999999999803e+00 8.937810000000000477e-01 8.647299999999999986e-01 -4.071199999999999819e-02 2.134037000000000184e+00 1.655262999999999929e+00 -1.885519999999999974e-01 -1.636125999999999969e+00 1.769505000000000106e+00 2.935019999999999851e-01 -2.000427000000000177e+00 -5.044250000000000123e-01 -2.236859999999999959e-01 1.116263999999999923e+00 1.164760000000000018e+00 6.571590000000000487e-01 -4.227790000000000159e-01 2.282923999999999953e+00 1.018734000000000028e+00 -1.393307000000000073e+00 -1.224641000000000091e+00 -1.767070000000000030e-01 -2.171737999999999946e+00 -5.916590000000000460e-01 -8.742760000000000531e-01 -9.597729999999999873e-01 2.082650000000000057e-01 1.484194000000000013e+00 -1.023152999999999979e+00 1.178911999999999960e+00 3.501300000000000245e-02 -4.526450000000000196e-01 2.343330000000000135e-01 2.796739999999999782e-01 2.977170000000000094e-01 3.640590000000000215e-01 9.866999999999999382e-02 -1.897590000000000110e-01 -7.358190000000000008e-01 -5.832299999999999984e-02 -8.255590000000000428e-01 7.703130000000000255e-01 7.009729999999999572e-01 -3.408829999999999916e-01 -2.989310000000000023e-01 -5.663489999999999913e-01 4.708309999999999995e-01 -1.176957000000000031e+00 -7.048599999999999310e-02 5.248519999999999852e-01
-1.909510000000000096e-01 -1.464008999999999894e+00 -9.792300000000000448e-01 -1.172385000000000010e+00 -4.774349999999999983e-01 1.251252999999999949e+00 -1.491444999999999910e+00 1.160695000000000032e+00 -9.791140000000000398e-01 -6.859220000000000317e-01 7.156099999999999683e-01 -1.392919999999999936e+00 -5.660340000000000371e-01 -7.286600000000000021e-02 6.223870000000000235e-01 -1.565538000000000096e+00 1.028620000000000090e+00 3.390449999999999853e-01 2.348490000000000022e-01 -2.076210000000000000e-01 -8.292610000000000259e-01 -1.345909000000000022e+00 1.167240000000000055e+00 1.972903999999999991e+00 1.843980000000000063e-01 -5.009609999999999896e-01 -2.693306000000000200e+00 -5.481279999999999486e-01 -1.337674000000000030e+00 -6.641810000000000214e-01 2.522860000000000102e+00 -3.446199999999999958e-02 2.516647999999999996e+00 -4.603229999999999822e-01 6.689399999999999513e-02 -1.315811000000000064e+00 -1.070920000000000066e-01 -1.880459999999999909e-01 1.333811000000000080e+00 -2.081287999999999805e+00 7.643330000000000402e-01 1.060519999999999935e-01 4.096560000000000201e-01 -1.630621000000000098e+00 -2.203435999999999950e+00 -5.341300000000000214e-02 -9.434199999999999531e-02 -3.250449999999999728e-01 -1.230517000000000083e+00 -3.481076999999999977e+00 -7.089710000000000178e-01 1.124292999999999987e+00 3.370670000000000055e-01 -1.409980999999999929e+00 -1.335552000000000072e+00 -2.739869999999999806e-01 -1.409280000000000088e+00 9.074400000000000521e-02 -1.228464999999999918e+00 6.577509999999999746e-01 -9.047809999999999464e-01 1.458428999999999975e+00 -3.102396000000000154e+00 1.292065000000000019e+00 3.369090000000000140e-01 -8.936709999999999932e-01 1.175964999999999927e+00 -1.218502999999999892e+00 -1.222715999999999914e+00 -1.949619999999999964e-01 -3.040030000000000232e-01 -1.085296999999999956e+00 -1.887145999999999990e+00 1.108684999999999921e+00 -9.316159999999999997e-01 6.346009999999999707e-01 1.557693999999999912e+00 3.384253999999999873e+00 1.202120000000000077e+00 1.790429000000000048e+00 1.329366999999999965e+00 1.295419999999999905e-01 4.134999999999999787e-03 -7.616499999999999659e-02 -1.492509999999999948e-01 -9.755930000000000435e-01 -1.152462000000000097e+00 2.219649999999999956e-01 7.076019999999999532e-01 1.636957999999999913e+00 3.087699999999999889e-01 -2.951199999999999934e-01 -1.081061999999999967e+00 4.143549999999999733e-01 -1.165360000000000007e-01 1.624099999999999988e-01 -1.348060999999999954e+00 -1.129153000000000073e+00 1.524264999999999981e+00 8.720229999999999926e-01 -5.554559999999999498e-01 5.984369999999999967e-01 1.918585999999999903e+00 1.084770000000000012e+00 7.972650000000000015e-01 8.265689999999999982e-01 -1.278980000000000117e-01 9.845869999999999900e-01 7.338010000000000366e-01 7.916109999999999536e-01 1.623698000000000086e+00 2.280565999999999871e+00 -1.013149999999999995e+00 2.646749999999999936e-01 -1.127717999999999998e+00 6.775649999999999729e-01 1.466588000000000003e+00 4.339500000000000024e-01 8.280960000000000543e-01 -4.832270000000000176e-01 -3.319099999999999828e-01 2.798545999999999978e+00 -4.462960000000000260e-01 -3.015709999999999780e-01 -1.197381000000000029e+00 9.039960000000000218e-01 -1.183907999999999960e+00 -8.398010000000000197e-01 1.762866999999999962e+00 5.186880000000000379e-01 -4.771190000000000153e-01 -2.018206000000000166e+00 7.748159999999999492e-01 -3.247530000000000139e-01 4.168898999999999688e+00 -4.750139999999999918e-01 2.321300000000000030e-01 9.270659999999999457e-01 -9.116959999999999509e-01 -1.267419999999999991e+00 -1.038591999999999960e+00 2.092390000000000083e-01 1.540812999999999988e+00 -2.288280000000000036e-01 4.846269999999999745e-01 -1.734496999999999955e+00 -1.978747000000000034e+00 4.340490000000000181e-01 6.734170000000000433e-01 -3.808150000000000146e-01 1.831250000000000044e+00 -8.368700000000000028e-01 6.777199999999999891e-01 5.363729999999999887e-01 1.344980999999999982e+00 4.277500000000000191e-01 -1.502030000000000032e-01 1.228547000000000056e+00 -4.100190000000000223e-01
1.851445999999999925e+00 2.094879999999999853e+00 -6.454799999999999427e-02 2.034380000000000077e-01 3.298309999999999853e-01 -3.641389999999999905e-01 -1.388770999999999978e+00 -1.283176000000000094e+00 -1.239870000000000028e+00 -6.294319999999999915e-01 3.935170000000000057e-01 -9.106499999999999317e-02 -1.004399999999999959e+00 -1.736050000000000093e-01 5.928160000000000096e-01 4.807810000000000139e-01 2.542240000000000055e+00 -1.749600000000000113e-02 -5.339549999999999574e-01 -1.822149999999999881e-01 6.788999999999999896e-03 -1.142770000000000036e-01 5.878109999999999724e-01 -6.491299999999999848e-02 7.238769999999999927e-01 3.320472000000000090e+00 1.899615999999999971e+00 1.435637000000000052e+00 2.912087000000000092e+00 5.093000000000000305e-02 1.397537000000000029e+00 -6.299550000000000427e-01 -3.039556999999999842e+00 -1.201389999999999958e-01 2.989510000000000223e-01 -2.415344000000000158e+00 -6.259360000000000479e-01 1.418941999999999926e+00 -1.343935000000000102e+00 1.723994999999999944e+00 1.645380999999999982e+00 -3.804489999999999816e-01 5.101099999999999524e-01 -5.913730000000000375e-01 1.259522999999999948e+00 1.240528000000000075e+00 -8.805300000000000626e-02 -2.368089999999999917e-01 -2.009808000000000039e+00 -2.716619000000000117e+00 -2.395725999999999800e+00 -8.651370000000000449e-01 6.209409999999999652e-01 -3.444760000000000044e-01 1.821236999999999995e+00 -1.630092000000000096e+00 1.225357999999999947e+00 2.452890000000000070e-01 -2.457148000000000110e+00 -7.966870000000000340e-01 9.843509999999999760e-01 2.166810000000000125e-01 4.504110000000000058e-01 -1.190670000000000062e-01 -1.255435999999999996e+00 -1.680997000000000074e+00 6.839100000000000179e-01 -2.129191000000000056e+00 1.524578999999999906e+00 -1.392179000000000055e+00 -1.140052000000000065e+00 -1.290601000000000109e+00 1.266701000000000077e+00 -9.938240000000000407e-01 1.699562000000000017e+00 1.185221000000000080e+00 -6.473290000000000433e-01 -1.490064000000000055e+00 -5.183817999999999593e+00 -2.449000000000000135e-02 1.745951999999999948e+00 -7.602550000000000141e-01 1.587990000000000013e+00 8.800750000000000517e-01 -2.894232999999999834e+00 4.356280000000000152e-01 -1.136640000000000011e-01 1.396524000000000099e+00 -1.410760000000000070e-01 -5.071149999999999824e-01 -1.677988999999999953e+00 -1.650449999999999973e+00 1.646276000000000073e+00 -1.421593000000000107e+00 1.430710000000000037e-01 -3.064089999999999869e-01 6.699070000000000302e-01 -2.369495999999999825e+00 -2.040573999999999888e+00 -7.288409999999999611e-01 -2.040453999999999990e+00 2.859068999999999861e+00 -6.737570000000000503e-01 8.342070000000000318e-01 1.088729999999999976e+00 1.477781999999999929e+00 3.132840000000000069e-01 -1.017293999999999921e+00 1.215859999999999941e+00 -1.886000000000000090e-03 1.770138999999999907e+00 1.383354999999999890e+00 -7.487629999999999564e-01 -5.642999999999999579e-03 -1.402298999999999962e+00 1.641130999999999895e+00 8.229229999999999601e-01 -3.663958000000000048e+00 2.636913999999999980e+00 -1.267703000000000024e+00 2.661529999999999951e+00 2.616633000000000209e+00 2.159449999999999981e-01 2.606689999999999841e-01 -1.473029999999999895e-01 -1.713079999999999881e-01 1.567010000000000014e+00 -1.316219999999999946e+00 4.751369999999999760e-01 -5.620730000000000448e-01 -1.770761000000000029e+00 -5.946200000000000374e-01 1.391509999999999969e-01 -6.635469999999999979e-01 4.961699999999999999e-01 -3.731769999999999810e-01 -1.731222000000000039e+00 1.246089000000000002e+00 6.015470000000000539e-01 8.567050000000000498e-01 1.655067000000000066e+00 2.419859999999999900e+00 9.541049999999999809e-01 -2.991999999999999993e+00 1.501986000000000043e+00 1.549001999999999990e+00 6.367070000000000229e-01 5.778689999999999660e-01 -9.085739999999999927e-01 -2.364770000000000039e+00 -2.164355000000000029e+00 -2.633699999999999930e-02 1.815814000000000039e+00 -2.183289999999999953e+00 -4.404600000000000182e-01 2.573487000000000080e+00 8.656319999999999570e-01 -5.130200000000000038e-02 6.089999999999999494e-04
4.626319999999999877e-01 9.698860000000000259e-01 7.593499999999999694e-01 5.575909999999999478e-01 1.050227000000000022e+00 -6.436539999999999484e-01 4.910990000000000077e-01 -3.001150000000000206e-01 -3.751439999999999775e-01 1.885224000000000011e+00 -1.757039999999999935e+00 -6.940920000000000423e-01 -8.337839999999999696e-01 -1.011681999999999970e+00 -1.592480000000000007e-01 3.494030000000000191e-01 1.957540000000000113e-01 -6.613200000000000189e-01 6.943409999999999860e-01 1.234100000000000058e-01 2.244149000000000171e+00 4.842480000000000118e-01 1.166112999999999955e+00 1.121340000000000003e+00 2.510599999999999984e-02 6.280310000000000059e-01 -3.077309999999999768e-01 -7.003970000000000473e-01 2.012354000000000198e+00 4.391510000000000136e-01 1.595650999999999931e+00 8.639940000000000397e-01 -1.262084999999999901e+00 -1.663791999999999938e+00 -2.486394000000000215e+00 -6.712320000000000508e-01 -2.196899999999999895e-02 1.782469999999999888e-01 -2.834530000000000105e-01 1.092389999999999972e+00 2.929174999999999862e+00 5.563139999999999752e-01 -1.425494999999999957e+00 -1.386935999999999947e+00 -1.376640000000000086e-01 1.203977000000000075e+00 3.089379999999999904e-01 -3.840629999999999877e-01 -2.374620000000000175e+00 -4.501330000000000053e-01 -1.160692999999999975e+00 -9.217340000000000533e-01 5.964439999999999742e-01 -1.290008000000000044e+00 2.696022000000000141e+00 3.121061000000000085e+00 2.208150000000000113e-01 2.210419999999999885e-01 -1.869803000000000104e+00 2.637973999999999819e+00 9.989109999999999934e-01 -1.022070000000000062e-01 1.470300000000000079e-02 -6.394589999999999996e-01 3.616369999999999862e-01 1.721189999999999998e+00 -1.053797000000000095e+00 -2.137348999999999943e+00 -1.000593000000000066e+00 -1.214990999999999932e+00 1.777393000000000001e+00 -2.473421999999999787e+00 7.143129999999999757e-01 9.324019999999999531e-01 2.345228000000000090e+00 -5.081790000000000473e-01 1.349269999999999914e-01 -3.435440000000000160e-01 1.314125999999999905e+00 -1.051409999999999956e+00 1.314214999999999911e+00 -1.265331999999999901e+00 8.537460000000000049e-01 -7.958229999999999471e-01 -1.754598000000000102e+00 -4.489509999999999890e-01 -5.832410000000000094e-01 2.722289999999999988e-01 4.554199999999999915e-01 2.764780000000000015e-01 2.163470000000000115e-01 -1.081215000000000037e+00 -2.180299999999999946e-02 8.753000000000000363e-03 7.351320000000000077e-01 -1.869919999999999916e-01 -8.952999999999999847e-02 7.090969999999999773e-01 -1.057810000000000000e-01 -2.137204999999999799e+00 -4.673649999999999749e-01 -2.713019999999999876e-01 -1.310953000000000035e+00 -3.747659999999999880e-01 -5.894530000000000047e-01 -1.827569999999999917e+00 4.253750000000000031e-01 -5.177150000000000363e-01 -1.962916000000000105e+00 1.204299999999999926e+00 -1.029652999999999929e+00 -1.147699999999999970e-01 -4.022959999999999869e-01 2.072700999999999905e+00 6.367279999999999607e-01 -1.668676999999999966e+00 2.171406000000000169e+00 -1.839476000000000111e+00 1.497155999999999931e+00 1.252637999999999918e+00 -3.084799999999999764e-01 -7.330179999999999474e-01 5.513900000000000468e-01 -6.927119999999999944e-01 -7.068100000000000493e-01 4.276229999999999754e-01 -2.134605000000000086e+00 -2.112030000000000018e-01 1.868754999999999944e+00 1.219225999999999921e+00 2.260282999999999820e+00 2.001880000000000048e-01 -7.270000000000000073e-02 1.833396999999999943e+00 3.492060000000000164e-01 2.122081999999999802e+00 -6.909359999999999946e-01 -1.354241000000000028e+00 -4.077359999999999873e-01 -1.085156999999999927e+00 -8.505230000000000290e-01 1.978800000000000003e-01 -2.048239999999999839e+00 -2.478582999999999981e+00 2.939390000000000058e-01 -3.204810000000000159e-01 1.183084000000000024e+00 2.249995000000000189e+00 -1.434619000000000089e+00 5.255739999999999856e-01 8.335869999999999669e-01 -2.595117999999999814e+00 -3.097504999999999953e+00 3.062190999999999885e+00 -1.418671000000000015e+00 6.278839999999999977e-01 1.377766999999999964e+00 9.166929999999999801e-01 -1.150792999999999955e+00
-2.575492000000000115e+00 -2.361759999999999970e-01 -8.527130000000000543e-01 1.720240999999999909e+00 1.951564000000000076e+00 -1.160329999999999973e-01 3.861547999999999981e+00 -1.282289999999999930e+00 -1.169002000000000097e+00 1.385472000000000037e+00 1.485092000000000079e+00 -3.589499999999999913e-01 -2.028183999999999987e+00 2.145081999999999933e+00 -1.005449999999999955e+00 -1.264000999999999930e+00 5.864679999999999893e-01 2.114320999999999895e+00 1.661497999999999919e+00 -2.787630000000000052e+00 -1.718782000000000032e+00 -1.032648999999999928e+00 -5.924739999999999451e-01 1.222299000000000024e+00 1.919268999999999892e+00 1.640025999999999984e+00 -1.154635999999999996e+00 4.502940000000000276e-01 -1.743633999999999906e+00 -1.474768999999999997e+00 3.715300000000000269e-01 6.822000000000000286e-02 3.595809999999999840e-01 6.316380000000000328e-01 -1.117550999999999961e+00 -1.141210000000000002e-01 3.824859999999999927e-01 3.806439999999999824e-01 -5.186100000000000154e-01 -1.423003999999999936e+00 -7.216839999999999922e-01 -7.331600000000000616e-02 -4.050299999999999734e-02 -1.151080000000000020e-01 -2.347390000000000032e-01 -5.607130000000000170e-01 -1.501049999999999884e-01 -4.528229999999999755e-01 -1.295523999999999898e+00 -1.146945000000000103e+00 2.746830000000000105e+00 -1.514393000000000100e+00 1.856289000000000078e+00 3.634830000000000005e+00 -1.194914999999999949e+00 1.378538999999999959e+00 1.040129999999999943e-01 -2.943084999999999951e+00 7.286949999999999816e-01 -2.800520000000000120e+00 -1.885088000000000097e+00 5.741110000000000380e-01 8.618759999999999755e-01 -1.065309000000000061e+00 1.427910000000000013e-01 -8.413840000000000208e-01 1.861747999999999958e+00 5.314250000000000362e-01 1.222976000000000063e+00 2.269184000000000090e+00 -5.252090000000000369e-01 -9.538180000000000547e-01 1.292380000000000084e+00 -3.379800000000000165e-02 -4.724419999999999731e-01 5.170040000000000191e-01 -9.527649999999999730e-01 7.124979999999999647e-01 -4.743609999999999771e-01 -2.773530000000000162e-01 1.836127999999999982e+00 9.345980000000000398e-01 1.005204999999999904e+00 2.265775999999999790e+00 -7.112359999999999793e-01 -3.543720000000000203e-01 -1.225578000000000056e+00 1.461549999999999905e+00 -9.995460000000000456e-01 1.443608999999999920e+00 -9.212930000000000286e-01 -1.298391999999999991e+00 2.167270000000000030e-01 -2.547860000000000125e-01 1.588940000000000019e+00 -2.021295999999999982e+00 9.569900000000000073e-01 -9.994370000000000198e-01 7.778509999999999591e-01 1.107013999999999943e+00 5.528600000000000181e-01 7.641860000000000319e-01 2.687470000000000137e-01 -1.848869999999999958e-01 -1.866228999999999916e+00 5.806599999999999956e-02 8.604650000000000354e-01 1.694680000000000075e-01 -9.156020000000000270e-01 3.890000000000000124e-01 2.634717999999999893e+00 2.238370000000000082e-01 -9.180749999999999744e-01 -1.919014999999999915e+00 -1.718458999999999959e+00 5.683030000000000026e-01 1.003783000000000092e+00 -3.314670000000000116e-01 2.202789000000000108e+00 -5.799769999999999648e-01 6.381599999999999773e-02 5.431669999999999554e-01 -1.873615999999999948e+00 -2.104233999999999938e+00 -2.385597000000000190e+00 7.446340000000000181e-01 -6.887200000000000266e-02 1.153917000000000082e+00 -9.908050000000000468e-01 -1.695214999999999916e+00 1.384543000000000079e+00 1.574386999999999981e+00 2.078734999999999999e+00 3.680809999999999915e-01 -6.832700000000000440e-01 3.136400000000000299e-02 2.189500000000000127e-02 7.130959999999999521e-01 -3.075519999999999921e-01 -2.411590000000000122e-01 -8.747810000000000308e-01 -2.524500000000000077e-01 1.393270000000000008e+00 3.361560000000000104e-01 -2.270800000000000041e-01 -1.656499999999999917e-01 -4.272880000000000011e-01 -8.647000000000000519e-02 -1.930030000000000079e-01 -8.287050000000000249e-01 -1.159069999999999961e-01 -6.721139999999999892e-01 3.415599999999999886e-02 5.451059999999999794e-01 -1.763851000000000058e+00 4.028749999999999831e-01 2.953730999999999884e+00 -3.642576000000000036e+00 -2.941070000000000073e-01
6.402860000000000218e-01 -7.662459999999999827e-01 7.037259999999999627e-01 -2.213699000000000083e+00 -7.768999999999999517e-02 -1.577190000000000092e+00 5.842829999999999968e-01 7.596450000000000147e-01 -7.983179999999999721e-01 6.047000000000000153e-01 -3.080715999999999788e+00 -2.777026999999999912e+00 7.062680000000000069e-01 1.116204999999999892e+00 -3.337620000000000031e-01 -8.951930000000000165e-01 -1.521247999999999934e+00 3.725115999999999872e+00 1.679686000000000012e+00 1.153599999999999938e-02 1.767004999999999937e+00 -1.123374000000000095e+00 -1.079999999999999988e-01 -1.769340000000000079e-01 5.225300000000000084e-02 4.640000000000000027e-04 9.021280000000000410e-01 1.379817999999999989e+00 -5.611979999999999746e-01 -1.662790000000000101e-01 9.407069999999999599e-01 -1.081029999999999935e+00 -9.553559999999999830e-01 1.040661999999999976e+00 -2.844269999999999854e-01 1.917186999999999975e+00 1.857360000000000122e-01 1.383971000000000062e+00 2.034100000000000144e-02 -4.614399999999999752e-02 -9.345599999999999741e-02 2.008570000000000078e-01 9.311679999999999957e-01 -1.120867999999999975e+00 -7.272399999999999698e-02 4.363739999999999841e-01 -7.021680000000000144e-01 -2.143044999999999867e+00 1.124711000000000016e+00 2.952469999999999817e-01 1.008051999999999948e+00 -5.624559999999999560e-01 -1.470579000000000081e+00 2.089571999999999985e+00 1.519798999999999900e+00 -1.005811999999999928e+00 -3.046369999999999911e-01 4.020719999999999850e-01 4.505990000000000273e-01 1.470908000000000104e+00 -9.556710000000000482e-01 1.605682000000000054e+00 -1.079507999999999912e+00 -7.189060000000000450e-01 1.277009000000000061e+00 -1.460899999999999976e-01 -1.569957999999999965e+00 5.439779999999999616e-01 8.028799999999999826e-02 1.811619999999999897e-01 -5.986599999999999699e-01 1.290291000000000077e+00 -3.928380000000000205e-01 -2.033272999999999886e+00 -4.491419999999999857e-01 1.488185000000000091e+00 -3.434710000000000263e-01 2.013672000000000128e+00 8.891100000000000392e-02 1.406840000000000035e-01 1.135199999999999959e-01 -3.874029000000000167e+00 -8.846500000000000197e-02 -1.048132000000000064e+00 2.137418999999999958e+00 -2.121560000000000112e-01 1.588359000000000076e+00 -2.060350999999999821e+00 8.253270000000000328e-01 1.385239000000000109e+00 -1.151081999999999939e+00 3.257120000000000015e-01 -2.045453999999999883e+00 -8.274380000000000068e-01 7.780719999999999859e-01 2.155940000000000079e-01 -3.893690000000000206e-01 2.743599999999999928e-01 8.398330000000000517e-01 9.231000000000000316e-01 -1.648150999999999922e+00 -4.133310000000000040e-01 -3.961600000000000121e-01 3.234277000000000069e+00 -2.452670000000000128e-01 3.395630000000000037e-01 -1.034635999999999889e+00 -7.973200000000000287e-01 9.886019999999999808e-01 -3.971560000000000090e-01 -9.618910000000000515e-01 -1.441937999999999942e+00 -1.134349000000000052e+00 -1.778062000000000031e+00 1.348886000000000029e+00 -1.360956999999999972e+00 -6.520740000000000425e-01 6.597910000000000164e-01 -3.023238999999999788e+00 -1.749999999999999982e-04 2.734644999999999992e+00 2.079799999999999982e-01 -8.254909999999999748e-01 5.363799999999999818e-02 4.027760000000000229e-01 -1.520806000000000102e+00 1.085334000000000021e+00 1.461287999999999920e+00 -1.403899000000000008e+00 1.813180000000000069e-01 2.877020000000000133e-01 -1.522124999999999950e+00 -2.162900000000000100e-01 1.172830000000000039e+00 2.586997999999999909e+00 2.293051999999999868e+00 2.019451999999999803e+00 3.297249999999999903e-01 -1.085752000000000050e+00 4.797429999999999750e-01 -1.068135999999999974e+00 -8.129340000000000455e-01 4.155844000000000094e+00 2.560753000000000057e+00 -5.073490000000000499e-01 1.144141000000000075e+00 -6.385340000000000460e-01 -2.178925000000000001e+00 2.742360999999999827e+00 -4.079130000000000256e-01 -1.160633999999999943e+00 2.779200000000000004e-01 -9.623400000000000010e-02 -1.075464999999999893e+00 -1.782740999999999909e+00 4.253700000000000259e-01 -1.076176999999999939e+00 -1.844106999999999941e+00 -8.296790000000000553e-01
-1.336924000000000001e+00 1.038321999999999967e+00 -1.090248000000000106e+00 2.026979999999999893e-01 -5.632580000000000364e-01 3.923650000000000193e-01 9.348149999999999515e-01 1.952650999999999915e+00 -9.394280000000000408e-01 2.410474999999999923e+00 -2.215873000000000204e+00 -1.624316000000000093e+00 -2.530877999999999961e+00 -2.266561999999999966e+00 4.000613000000000419e+00 4.668519999999999892e-01 3.724009999999999820e-01 -2.110735000000000028e+00 7.348369999999999624e-01 9.531760000000000232e-01 9.106229999999999603e-01 2.301980000000000137e-01 6.165000000000000341e-03 9.807470000000000354e-01 -7.233900000000000052e-02 3.748560000000000225e-01 1.469378999999999991e+00 4.236030000000000073e-01 -1.002868000000000093e+00 3.197083000000000119e+00 -1.713764999999999983e+00 -1.505236000000000018e+00 2.254410000000000025e-01 1.072935999999999890e+00 -1.870004999999999917e+00 2.984640000000000182e+00 -3.370059999999999722e-01 1.180040999999999896e+00 2.565120000000000178e-01 -1.041306000000000065e+00 -5.098199999999999954e-02 -9.207349999999999701e-01 -1.226185000000000080e+00 -1.460274000000000072e+00 9.670140000000000402e-01 -1.152198000000000055e+00 1.330497000000000041e+00 -8.633880000000000443e-01 4.932719999999999883e-01 -8.189079999999999693e-01 1.754780000000000006e+00 -2.057606999999999964e+00 2.108038000000000078e+00 -1.899019999999999875e-01 3.512560000000000127e-01 -7.796009999999999884e-01 -5.562740000000000462e-01 1.519875000000000087e+00 1.586556000000000077e+00 4.722850000000000104e-01 1.683199999999999974e-01 -1.097140000000000060e-01 -1.320267999999999997e+00 -2.938870000000000093e-01 1.645337999999999967e+00 -1.444004000000000065e+00 5.590789999999999926e-01 -5.628699999999999815e-01 8.047450000000000436e-01 5.854899999999999549e-01 -3.958849999999999869e-01 8.233679999999999888e-01 2.257312999999999903e+00 -1.317010000000000014e+00 -4.600079999999999725e-01 2.221042000000000183e+00 -4.158371999999999957e+00 2.853829999999999867e+00 -2.669595999999999858e+00 1.334149999999999947e+00 -2.302550000000000097e+00 2.247609999999999886e-01 8.140500000000000513e-02 7.346009999999999485e-01 -4.978099999999999886e-02 2.737979999999999858e-01 6.092100000000000293e-01 2.398709000000000202e+00 1.189357999999999915e+00 -2.642065000000000108e+00 -9.373399999999999510e-01 -1.362807000000000102e+00 8.507000000000000672e-03 -3.533284000000000091e+00 7.667890000000000539e-01 -2.594170999999999783e+00 -4.407490000000000019e-01 -6.081619999999999804e-01 2.708360000000000212e-01 -8.408689999999999776e-01 4.275930000000000009e-01 -4.157899999999999791e-02 7.224760000000000071e-01 1.512569000000000052e+00 -4.688990000000000102e-01 -1.396563999999999917e+00 -6.245099999999999957e-02 -1.980906999999999973e+00 -1.944058000000000064e+00 -2.077887000000000040e+00 2.169836000000000098e+00 1.085776000000000074e+00 -9.847949999999999759e-01 6.843609999999999971e-01 -1.507652999999999910e+00 -3.628970000000000251e-01 -1.032200000000000006e+00 1.271031999999999940e+00 3.627409000000000106e+00 1.167100000000000026e+00 1.779884000000000022e+00 5.649600000000000177e-01 -1.337933999999999957e+00 1.827034999999999965e+00 1.409610999999999947e+00 -1.899550999999999989e+00 -2.888476999999999961e+00 2.301566999999999918e+00 -2.241797000000000040e+00 9.905650000000000288e-01 2.057348000000000177e+00 -7.483119999999999772e-01 1.441613000000000033e+00 -3.045746999999999982e+00 2.536199999999999913e-02 2.475620999999999849e+00 -3.424751000000000101e+00 2.642926999999999804e+00 7.962179999999999813e-01 -1.607067999999999941e+00 -2.627840000000000176e-01 7.149480000000000279e-01 2.820235999999999965e+00 -2.181269999999999876e-01 -5.358479999999999910e-01 7.273340000000000360e-01 -1.057239999999999985e-01 3.277939999999999743e-01 1.620401999999999898e+00 -1.862835000000000019e+00 3.295819999999999861e-01 -1.615714000000000095e+00 -1.944319999999999937e-01 -3.702300000000000035e-01 6.795299999999999951e-02 2.055088000000000026e+00 -2.141529999999999934e+00 8.991710000000000536e-01 -1.008081999999999923e+00