5.086100000000000065e-01 1.367599000000000009e+00 -1.399205999999999950e+00 1.710355000000000070e+00 3.781941999999999915e+00 -5.479799999999999949e-02 -1.898473000000000077e+00 7.170239999999999947e-01 1.669863000000000097e+00 2.422445000000000181e+00 -3.496503999999999834e+00 4.635670000000000068e-01 -7.564739999999999798e-01 9.556710000000000482e-01 -6.719950000000000090e-01 6.511500000000000066e-01 5.012780000000000014e-01 -1.180225999999999997e+00 -5.696780000000000177e-01 -7.739400000000000446e-02 -3.443939999999999779e-01 -2.463900000000000118e-02 1.923680000000000112e-01 -8.651339999999999586e-01 1.672829999999999873e-01 -1.739581999999999962e+00 -1.060439999999999994e-01 9.051499999999999824e-02 1.491154000000000091e+00 1.205751000000000017e+00 6.834580000000000100e-01 -2.322760000000000102e-01 -4.244780000000000220e-01 -2.224172999999999956e+00 -1.027611999999999970e+00 -3.227769999999999806e-01 -6.583149999999999835e-01 1.677680999999999978e+00 5.640810000000000546e-01 4.049409999999999954e-01 -5.659589999999999899e-01 4.286400000000000210e-01 -5.539720000000000200e-01 8.784140000000000281e-01 4.562900000000000289e-02 3.929759999999999920e-01 3.350369999999999737e-01 6.005480000000000373e+00 2.380669999999999842e+00 -1.643936000000000064e+00 -1.522502000000000022e+00 -4.411070000000000269e-01 8.014630000000000365e-01 5.219999999999999814e-03 -5.668220000000000480e-01 -4.366823000000000121e+00 -1.840262000000000064e+00 -4.893649999999999944e-01 -2.338740000000000041e+00 9.142599999999999338e-02 1.693659999999999888e-01 8.071749999999999758e-01 -6.722860000000000502e-01 -1.326737000000000055e+00 -7.126649999999999929e-01 1.919029000000000096e+00 -1.738703000000000110e+00 6.319770000000000110e-01 -1.500323999999999991e+00 -3.047969999999999846e-01 -1.399825000000000097e+00 -1.903259999999999952e-01 -5.389800000000000146e-02 1.068289000000000044e+00 -5.554800000000000015e-02 1.145588000000000051e+00 2.100916999999999923e+00 -4.626890000000000169e-01 1.875475000000000003e+00 -1.249608999999999970e+00 -4.399499999999999938e-02 2.098939999999999972e-01 -4.396229999999999860e-01 -8.557019999999999627e-01 4.120670000000000166e-01 5.831009999999999804e-01 -2.947899999999999965e-01 3.655329999999999968e-01 -9.128910000000000080e-01 -4.687939999999999885e-01 -3.145609999999999795e-01 -1.167559000000000013e+00 -7.446859999999999591e-01 -1.118120999999999921e+00 -5.411629999999999496e-01 -1.425059999999999938e-01 -1.120535999999999976e+00 4.060178999999999760e+00 1.451788000000000078e+00 1.023451000000000111e+00 2.639111000000000207e+00 -3.818852999999999831e+00 -1.395356999999999958e+00 -7.768300000000000205e-01 3.008643000000000178e+00 3.931819999999999760e-01 3.814080000000000248e-01 6.248110000000000053e-01 1.952470000000000039e-01 2.003635000000000055e+00 2.916469999999999896e-01 1.228112000000000092e+00 1.789136999999999977e+00 4.180059999999999887e-01 -3.261626000000000136e+00 3.116150000000000198e+00 1.461616999999999944e+00 1.432916000000000079e+00 -1.492194999999999938e+00 3.010149999999999770e-01 -4.105030000000000068e-01 -4.770711000000000368e+00 -3.130246999999999780e+00 3.236979999999999857e-01 -1.048313999999999968e+00 -1.507646000000000042e+00 -3.700950000000000073e-01 -1.066013000000000099e+00 1.583090000000000053e-01 -2.942799999999999930e-02 -1.870165000000000077e+00 3.602629999999999999e-01 2.180569999999999897e+00 3.262321000000000026e+00 5.784749999999999615e-01 -2.342518000000000100e+00 3.936640000000000139e-01 5.174889999999999768e-01 1.602395999999999932e+00 -2.600303999999999949e+00 1.049458999999999920e+00
1.569999999999999944e-04 -3.510000000000000208e-04 -3.600000000000000091e-05 6.120000000000000223e-04 2.820000000000000241e-04 -4.699999999999999724e-05 -3.260000000000000094e-04 -6.999999999999999929e-04 -2.900000000000000017e-05 -5.379999999999999583e-04 -5.910000000000000539e-04 -4.399999999999999886e-05 5.500000000000000196e-05 1.050000000000000044e-04 9.999999999999999547e-07 4.079999999999999968e-04 6.149999999999999868e-04 -1.699999999999999987e-05 -1.410000000000000120e-04 2.519999999999999996e-04 -3.699999999999999811e-05 -3.519999999999999908e-04 7.630000000000000063e-04 -4.100000000000000047e-05 9.000000000000000228e-06 3.269999999999999795e-04 -2.500000000000000120e-05 3.199999999999999855e-05 3.919999999999999873e-04 -5.199999999999999680e-05 -7.999999999999999638e-06 -4.400000000000000157e-04 -1.599999999999999928e-05 1.310000000000000129e-04 -4.870000000000000197e-04 3.280000000000000038e-04 1.299999999999999886e-04 -4.859999999999999954e-04 -1.900000000000000105e-04 -5.099999999999999960e-05 2.259999999999999910e-04 9.600000000000000243e-05 -5.000000000000000240e-05 2.259999999999999910e-04 -1.110000000000000011e-04 -7.999999999999999638e-06 -3.939999999999999817e-04 -5.700000000000000314e-05 -6.999999999999999895e-06 -3.930000000000000117e-04 4.399999999999999886e-05 1.060000000000000016e-04 3.370000000000000057e-04 5.010000000000000347e-04 1.069999999999999988e-04 3.390000000000000001e-04 -3.669999999999999760e-04 -4.040000000000000080e-04 -3.570000000000000040e-04 7.799999999999999859e-05 -4.049999999999999781e-04 -3.739999999999999835e-04 1.099999999999999971e-05 1.489999999999999897e-04 3.959999999999999762e-04 -4.310000000000000137e-04 1.479999999999999925e-04 3.980000000000000248e-04 4.240000000000000062e-04 1.630000000000000047e-04 -1.620000000000000075e-04 7.799999999999999859e-05 1.630000000000000047e-04 -1.589999999999999888e-04 1.299999999999999920e-05 -3.669999999999999760e-04 -4.240000000000000062e-04 9.299999999999999727e-05 -3.649999999999999816e-04 -4.240000000000000062e-04 -5.800000000000000034e-05 4.159999999999999744e-04 2.700000000000000035e-04 -3.100000000000000135e-05 4.159999999999999744e-04 2.719999999999999979e-04 1.359999999999999989e-04 -1.119999999999999983e-04 2.599999999999999772e-04 2.620000000000000258e-04 -1.119999999999999983e-04 2.590000000000000071e-04 -2.689999999999999791e-04 -3.100000000000000135e-05 2.900000000000000017e-04 1.610000000000000103e-04 -3.199999999999999855e-05 2.889999999999999774e-04 -7.600000000000000418e-05 -3.300000000000000253e-05 -3.319999999999999926e-04 -5.540000000000000219e-04 -3.399999999999999973e-05 -3.310000000000000225e-04 5.590000000000000351e-04 3.699999999999999811e-05 -3.550000000000000096e-04 -2.099999999999999884e-05 2.400000000000000061e-04 -3.209999999999999963e-04 -2.400000000000000061e-05 -2.300000000000000002e-05 5.540000000000000219e-04 -2.799999999999999958e-05 -1.999999999999999909e-06 3.020000000000000223e-04 -3.399999999999999973e-05 7.700000000000000139e-05 -6.449999999999999570e-04 -2.500000000000000120e-05 -3.000000000000000076e-05 2.790000000000000054e-04 -2.900000000000000017e-05 5.099999999999999960e-05 1.119999999999999983e-04 -2.400000000000000061e-05 -1.000000000000000082e-05 7.879999999999999635e-04 -3.300000000000000253e-05 -7.669999999999999951e-04 1.230000000000000082e-04 -1.200000000000000030e-05 -1.320000000000000101e-04 -1.806000000000000097e-03 -3.300000000000000253e-05 3.179999999999999776e-04 1.099999999999999971e-05 -1.200000000000000030e-05 4.139999999999999800e-04 1.066000000000000107e-03 -2.000000000000000164e-05
-6.611699999999999522e-02 3.938189999999999746e-01 9.485489999999999755e-01 4.266690000000000205e-01 2.565859999999999808e-01 -3.061969999999999970e-01 -6.479899999999999549e-01 5.277429999999999621e-01 -8.179130000000000011e-01 -2.387239999999999918e-01 3.501310000000000144e+00 -8.920160000000000311e-01 -1.596314000000000011e+00 -1.875793999999999961e+00 3.588230000000000031e-01 4.099030000000000173e-01 -5.152750000000000385e-01 -1.337755999999999945e+00 6.391879999999999784e-01 8.625230000000000397e-01 1.036178000000000043e+00 3.886270999999999809e+00 -2.247252000000000027e+00 -4.866050000000000098e-01 3.783079999999999776e-01 1.342919999999999947e-01 -1.417265999999999915e+00 -1.650592999999999977e+00 1.516283999999999965e+00 -7.061629999999999852e-01 -2.854720000000000035e-01 -7.825940000000000119e-01 1.633571000000000106e+00 -6.341040000000000010e-01 -2.410849999999999937e-01 6.018909999999999538e-01 -1.342789000000000010e+00 -9.201279999999999459e-01 -1.084696000000000105e+00 -2.077472000000000207e+00 1.297161999999999926e+00 1.318659000000000026e+00 1.850503999999999927e+00 1.811633999999999967e+00 4.378190000000000137e-01 5.700119999999999632e-01 3.468000000000000162e-03 2.386651000000000078e+00 1.425122000000000000e+00 -8.653840000000000421e-01 -2.337620999999999949e+00 8.784880000000000466e-01 5.092309999999999892e-01 3.859630000000000005e-01 -9.531799999999999995e-02 2.170600000000000029e-01 -4.487220000000000097e-01 -6.156890000000000418e-01 -2.240218000000000043e+00 2.710350000000000259e-01 -3.135169999999999901e-01 -3.000452000000000119e+00 -7.783639999999999448e-01 4.242580000000000240e-01 -2.166939999999999977e-01 2.530564000000000036e+00 5.978189999999999893e-01 -7.809490000000000043e-01 -1.250100999999999907e+00 -1.069379000000000079e+00 1.349800000000000111e+00 5.951020000000000199e-01 1.289292000000000105e+00 8.173529999999999962e-01 1.863980000000000081e-01 1.700736999999999943e+00 -1.807716000000000101e+00 -4.559779999999999944e-01 -8.167399999999999660e-02 2.069920000000000093e-01 -5.584259999999999780e-01 -3.628870000000000151e-01 -6.761460000000000248e-01 -4.359439999999999982e-01 -1.598420000000000119e-01 1.161139999999999950e-01 1.350989999999999913e+00 4.999819999999999820e-01 2.952090999999999799e+00 -1.230955000000000021e+00 -3.200700000000000212e-01 -2.387950000000000073e-01 5.279909999999999881e-01 2.328010000000000079e-01 -8.848999999999999228e-03 -5.903580000000000494e-01 -1.254165999999999892e+00 1.963550000000000018e-01 -2.584330000000000238e-01 8.947920000000000318e-01 2.718599999999999905e-01 -4.521488999999999869e+00 -1.561118999999999923e+00 1.269524000000000097e+00 2.811881000000000075e+00 6.946400000000000352e-01 2.374499999999999875e-02 -6.381719999999999615e-01 -1.527509999999999979e-01 -3.112378000000000089e+00 6.688720000000000221e-01 -2.203259999999999941e-01 1.631799999999999917e-02 1.677510000000000112e-01 9.051179999999999781e-01 1.081489999999999951e-01 -4.069650000000000212e-01 1.534719999999999973e-01 7.238780000000000214e-01 -1.195190000000000002e-01 -1.920191999999999899e+00 -1.207880000000000065e+00 1.604111999999999982e+00 -1.880878000000000050e+00 -1.334959999999999924e+00 1.104687999999999892e+00 -2.171304000000000123e+00 -7.023019999999999818e-01 -4.647859999999999769e-01 -1.825971999999999928e+00 -1.611609999999999987e-01 5.535020000000000495e-01 2.599666000000000032e+00 4.171905999999999892e+00 -1.818420000000000036e-01 -2.039140000000000119e-01 7.942770000000000108e-01 1.170052000000000092e+00 2.291533999999999960e+00 -1.113461000000000034e+00 -9.247539999999999649e-01
1.569999999999999944e-04 -3.510000000000000208e-04 -3.600000000000000091e-05 6.120000000000000223e-04 2.820000000000000241e-04 -4.699999999999999724e-05 -3.260000000000000094e-04 -6.999999999999999929e-04 -2.900000000000000017e-05 -5.379999999999999583e-04 -5.910000000000000539e-04 -4.399999999999999886e-05 5.500000000000000196e-05 1.050000000000000044e-04 9.999999999999999547e-07 4.079999999999999968e-04 6.149999999999999868e-04 -1.699999999999999987e-05 -1.410000000000000120e-04 2.519999999999999996e-04 -3.699999999999999811e-05 -3.519999999999999908e-04 7.630000000000000063e-04 -4.100000000000000047e-05 9.000000000000000228e-06 3.269999999999999795e-04 -2.500000000000000120e-05 3.199999999999999855e-05 3.919999999999999873e-04 -5.199999999999999680e-05 -7.999999999999999638e-06 -4.400000000000000157e-04 -1.599999999999999928e-05 1.310000000000000129e-04 -4.870000000000000197e-04 3.280000000000000038e-04 1.299999999999999886e-04 -4.859999999999999954e-04 -1.900000000000000105e-04 -5.099999999999999960e-05 2.259999999999999910e-04 9.600000000000000243e-05 -5.000000000000000240e-05 2.259999999999999910e-04 -1.110000000000000011e-04 -7.999999999999999638e-06 -3.939999999999999817e-04 -5.700000000000000314e-05 -6.999999999999999895e-06 -3.930000000000000117e-04 4.399999999999999886e-05 1.060000000000000016e-04 3.370000000000000057e-04 5.010000000000000347e-04 1.069999999999999988e-04 3.390000000000000001e-04 -3.669999999999999760e-04 -4.040000000000000080e-04 -3.570000000000000040e-04 7.799999999999999859e-05 -4.049999999999999781e-04 -3.739999999999999835e-04 1.099999999999999971e-05 1.489999999999999897e-04 3.959999999999999762e-04 -4.310000000000000137e-04 1.479999999999999925e-04 3.980000000000000248e-04 4.240000000000000062e-04 1.630000000000000047e-04 -1.620000000000000075e-04 7.799999999999999859e-05 1.630000000000000047e-04 -1.589999999999999888e-04 1.299999999999999920e-05 -3.669999999999999760e-04 -4.240000000000000062e-04 9.299999999999999727e-05 -3.649999999999999816e-04 -4.240000000000000062e-04 -5.800000000000000034e-05 4.159999999999999744e-04 2.700000000000000035e-04 -3.100000000000000135e-05 4.159999999999999744e-04 2.719999999999999979e-04 1.359999999999999989e-04 -1.119999999999999983e-04 2.599999999999999772e-04 2.620000000000000258e-04 -1.119999999999999983e-04 2.590000000000000071e-04 -2.689999999999999791e-04 -3.100000000000000135e-05 2.900000000000000017e-04 1.610000000000000103e-04 -3.199999999999999855e-05 2.889999999999999774e-04 -7.600000000000000418e-05 -3.300000000000000253e-05 -3.319999999999999926e-04 -5.540000000000000219e-04 -3.399999999999999973e-05 -3.310000000000000225e-04 5.590000000000000351e-04 3.699999999999999811e-05 -3.550000000000000096e-04 -2.099999999999999884e-05 2.400000000000000061e-04 -3.209999999999999963e-04 -2.400000000000000061e-05 -2.300000000000000002e-05 5.540000000000000219e-04 -2.799999999999999958e-05 -1.999999999999999909e-06 3.020000000000000223e-04 -3.399999999999999973e-05 7.700000000000000139e-05 -6.449999999999999570e-04 -2.500000000000000120e-05 -3.000000000000000076e-05 2.790000000000000054e-04 -2.900000000000000017e-05 5.099999999999999960e-05 1.119999999999999983e-04 -2.400000000000000061e-05 -1.000000000000000082e-05 7.879999999999999635e-04 -3.300000000000000253e-05 -7.669999999999999951e-04 1.230000000000000082e-04 -1.200000000000000030e-05 -1.320000000000000101e-04 -1.806000000000000097e-03 -3.300000000000000253e-05 3.179999999999999776e-04 1.099999999999999971e-05 -1.200000000000000030e-05 4.139999999999999800e-04 1.066000000000000107e-03 -2.000000000000000164e-05
4.480599999999999861e-02 5.312649999999999872e-01 -9.166159999999999863e-01 -1.760084999999999900e+00 1.061455999999999955e+00 4.401260000000000172e-01 -1.419326000000000088e+00 2.782250000000000001e-01 8.103690000000000060e-01 -9.201499999999999957e-02 -5.383109999999999840e-01 9.014739999999999975e-01 -1.748850000000000127e-01 6.002429999999999710e-01 1.543066000000000049e+00 2.372100000000000042e-01 -8.754009999999999847e-01 2.316899999999999862e-02 -7.987170000000000103e-01 2.781199999999999992e-02 -9.230679999999999996e-01 -2.346749999999999947e-01 3.474003000000000174e+00 4.130070000000000130e-01 -2.098289999999999877e-01 -2.877390000000000225e-01 -7.381910000000000416e-01 -2.352221999999999813e+00 -2.286890999999999785e+00 -1.765911000000000008e+00 5.415910000000000446e-01 -1.110012999999999916e+00 2.640770999999999979e+00 -1.292378000000000027e+00 1.412469999999999892e+00 -8.199729999999999519e-01 2.683209999999999873e+00 8.299600000000000311e-01 1.188939999999999997e-01 -6.896399999999999753e-02 -1.352948000000000039e+00 1.143291000000000057e+00 -9.623840000000000172e-01 -2.023199999999999998e-01 -1.335358999999999963e+00 6.321400000000000630e-02 -9.582319999999999727e-01 1.694487999999999994e+00 1.212487000000000092e+00 -1.359332999999999902e+00 -1.102862999999999927e+00 3.384329999999999838e-01 -3.359329999999999816e-01 1.360128000000000004e+00 -6.548699999999999521e-01 -7.042199999999999849e-02 7.260400000000000187e-02 -1.955332999999999988e+00 -7.203629999999999756e-01 2.842792999999999903e+00 -5.435910000000000464e-01 1.779457999999999984e+00 -1.829711000000000087e+00 -1.006682000000000077e+00 1.440377999999999936e+00 1.946399999999999866e-02 -6.825219999999999620e-01 1.312189000000000050e+00 -2.422153999999999918e+00 6.815039999999999987e-01 -6.614100000000000534e-01 -2.807580000000000076e-01 -8.014809999999999990e-01 -3.210160000000000236e-01 -1.162927999999999962e+00 -1.854480000000000017e-01 -4.820510000000000073e-01 6.113570000000000393e-01 -7.610379999999999923e-01 -1.947109999999999952e-01 -3.684720000000000217e-01 7.165199999999999347e-02 -2.485850000000000004e-01 -1.234455000000000080e+00 1.146098000000000061e+00 1.335283999999999915e+00 -7.297040000000000193e-01 3.013500000000000068e-01 -1.075064000000000020e+00 -1.237071999999999949e+00 8.748740000000000405e-01 -5.750979999999999981e-01 8.692159999999999886e-01 1.019586000000000103e+00 3.210359999999999880e-01 -4.035889999999999755e-01 8.780559999999999476e-01 -1.483667000000000069e+00 2.388346999999999998e+00 -1.034308999999999923e+00 6.304610000000000491e-01 -4.222324000000000410e+00 1.150489999999999985e-01 1.588506999999999891e+00 1.367804999999999938e+00 7.436490000000000045e-01 -6.112269999999999648e-01 5.275410000000000377e-01 -1.089258999999999977e+00 -1.469195000000000029e+00 2.848240000000000216e-01 2.342410999999999799e+00 2.725314000000000014e+00 -1.148938999999999933e+00 3.207610000000000183e-01 1.834538000000000002e+00 1.081196999999999964e+00 1.592386999999999997e+00 -2.016709999999999892e-01 1.056942000000000048e+00 -2.612912999999999819e+00 -1.886003000000000096e+00 6.819889999999999564e-01 3.398700000000000054e-01 2.370349999999999957e-01 7.559000000000000163e-01 2.041735000000000078e+00 6.758619999999999628e-01 -3.011229999999999740e-01 -1.014089999999999991e-01 1.692928999999999906e+00 -3.234319999999999973e-01 1.807866999999999891e+00 2.693878999999999913e+00 -3.450819999999999999e-01 -1.079009999999999969e-01 -3.507540000000000102e+00 -2.111800000000000135e-02 1.504437000000000024e+00 -3.667158999999999835e+00 -1.591899999999999912e-02
-1.817501999999999951e+00 1.123728999999999978e+00 -5.059730000000000061e-01 -3.407049999999999801e-01 2.585929999999999840e+00 8.762140000000000484e-01 4.166050000000000031e-01 -4.769430000000000058e-01 -1.778659999999999963e-01 6.834280000000000355e-01 5.122079999999999966e-01 -6.573740000000000139e-01 5.435689999999999689e-01 6.854200000000000292e-01 5.499169999999999892e-01 -3.048390000000000266e-01 8.197820000000000107e-01 -7.856809999999999627e-01 4.436820000000000208e-01 1.512151000000000023e+00 1.627089000000000008e+00 1.085471000000000075e+00 -3.084299999999999820e-01 3.645720000000000072e-01 -7.661639999999999562e-01 7.148539999999999894e-01 -1.511730000000000018e-01 -1.319144000000000094e+00 3.658087999999999784e+00 2.854289999999999883e-01 -4.222200000000000258e-02 -8.341309999999999558e-01 1.096333000000000002e+00 1.667094000000000076e+00 -2.235365999999999964e+00 -3.168607000000000173e+00 7.857769999999999477e-01 7.544659999999999700e-01 -7.164340000000000153e-01 -4.186409999999999854e-01 1.721803999999999890e+00 9.211540000000000283e-01 -1.319874999999999909e+00 1.801835999999999993e+00 -1.207819999999999894e+00 1.089053000000000049e+00 9.327000000000000568e-02 3.052509999999999946e-01 3.089470000000000272e-01 -6.582609999999999850e-01 -1.410174999999999956e+00 3.096459999999999768e-01 1.771176000000000084e+00 1.146019999999999955e-01 -4.176989999999999870e-01 8.196039999999999992e-01 -1.311660000000000048e+00 3.225420000000000176e+00 2.937529999999999863e-01 7.904780000000000140e-01 2.436799999999999855e+00 7.319909999999999473e-01 -8.946570000000000356e-01 1.032588000000000061e+00 -7.186800000000000133e-02 -9.617799999999999960e-02 -4.579409999999999870e-01 -9.058950000000000058e-01 -2.179336999999999858e+00 7.958999999999999408e-02 -9.651030000000000442e-01 -3.349409999999999887e-01 1.094594999999999985e+00 5.413799999999999862e-02 -1.127747000000000055e+00 -2.551750999999999880e+00 -4.537840000000000207e-01 -5.389669999999999739e-01 -2.275870000000000115e-01 -3.543479999999999963e-01 -5.910560000000000258e-01 -1.278699999999999976e-02 -1.645814000000000110e+00 -2.558369999999999811e-01 8.600800000000000112e-02 -6.884630000000000472e-01 7.192859999999999809e-01 1.409700000000000016e-02 5.679629999999999956e-01 1.116281000000000079e+00 4.850309999999999899e-01 -1.165022000000000002e+00 -7.943899999999999573e-02 -3.015994000000000064e+00 -1.179591999999999974e+00 -4.341389999999999971e-01 2.121052000000000159e+00 -1.537830999999999948e+00 -3.695519999999999916e-01 -2.196099999999999941e+00 -4.557370000000000032e-01 -2.779478999999999811e+00 -1.686698000000000031e+00 4.332460000000000200e-01 2.268292000000000197e+00 -3.693779999999999841e-01 -1.097685000000000022e+00 2.758910999999999891e+00 -5.998470000000000191e-01 -8.561370000000000369e-01 -7.447679999999999856e-01 -4.475339999999999874e-01 8.754729999999999457e-01 2.876319999999999988e-01 -1.145701000000000080e+00 -2.736830000000000096e-01 1.400279000000000051e+00 1.017667000000000099e+00 2.031461999999999879e+00 1.721233000000000013e+00 -7.250039999999999818e-01 -3.704054999999999875e+00 1.574683999999999973e+00 1.129715000000000025e+00 -1.040653000000000050e+00 -1.996699999999999864e-01 8.797319999999999585e-01 -1.616559999999999997e+00 -4.891340000000000132e-01 3.870930000000000204e-01 -4.237070000000000003e-01 -7.114200000000000523e-01 -3.466069999999999984e-01 2.356624000000000052e+00 2.386978000000000044e+00 -1.741187999999999958e+00 -1.462710000000000121e-01 3.509349999999999969e-01 9.482460000000000333e-01 -2.823630000000000084e+00 4.035340000000000038e-01
1.430299999999999905e+00 -1.279344000000000037e+00 -4.650000000000000270e-04 -1.348870000000000013e+00 -6.646140000000000381e-01 5.149519999999999653e-01 -2.052210999999999785e+00 -1.661880000000000024e-01 -1.531733000000000011e+00 5.689600000000000213e-01 -1.964920000000000000e-01 -7.688129999999999686e-01 2.066169999999999951e-01 -1.481155999999999917e+00 1.701969999999999872e-01 8.521600000000000008e-02 -3.054580000000000073e-01 1.814880000000000104e-01 2.366099999999999870e-01 -1.639790000000000136e-01 9.665799999999999947e-01 5.822009999999999685e-01 9.394930000000000225e-01 -7.461719999999999464e-01 5.678680000000000394e-01 9.736240000000000450e-01 -1.694644000000000039e+00 -3.025619999999999976e-01 7.946689999999999587e-01 -1.994199999999999862e-01 -1.927900000000000100e-02 -1.249289999999999984e-01 1.180800000000000044e-01 2.702840000000000242e-01 6.353269999999999751e-01 -2.074910000000000088e-01 -9.222799999999999887e-01 -8.668500000000000094e-01 5.551589999999999581e-01 9.533939999999999637e-01 1.063555000000000028e+00 6.385340000000000460e-01 6.132689999999999531e-01 8.555209999999999759e-01 3.390529999999999933e-01 5.323890000000000011e-01 -1.040022999999999920e+00 4.256139999999999923e-01 3.989150000000000196e-01 4.212400000000000033e-01 1.317859999999999865e-01 9.799309999999999965e-01 1.740566999999999975e+00 -1.597949999999999926e-01 -1.310290000000000066e-01 4.415479999999999960e-01 -2.457660000000000122e-01 8.102199999999999680e-02 7.977870000000000239e-01 9.574259999999999993e-01 2.974459999999999882e-01 -2.540367999999999959e+00 -7.748429999999999485e-01 -2.266700000000000104e-01 -2.000077999999999800e+00 1.255203999999999986e+00 -1.435842999999999980e+00 3.232299999999999757e-02 -2.574659999999999727e-01 6.415880000000000472e-01 -8.257929999999999993e-01 -7.873400000000000398e-01 9.890759999999999552e-01 -7.640709999999999447e-01 1.433667000000000025e+00 -8.120600000000000041e-02 -1.715740000000000043e+00 -1.652023000000000019e+00 -3.192789999999999795e-01 6.030210000000000292e-01 6.014420000000000321e-01 1.222999999999999912e-03 7.490459999999999896e-01 1.063865999999999978e+00 -5.319679999999999964e-01 6.515480000000000160e-01 2.047500000000000014e-02 -2.085852000000000039e+00 1.024094999999999978e+00 -1.177403999999999895e+00 -1.324899999999999967e-01 -1.189764999999999961e+00 7.749009999999999510e-01 6.874559999999999560e-01 -1.567741999999999969e+00 -2.596649999999999792e-01 1.022079999999999933e-01 -3.845729999999999982e-01 6.359879999999999978e-01 1.928449999999999886e-01 6.657269999999999577e-01 -1.383939000000000030e+00 9.735329999999999817e-01 2.311449000000000087e+00 9.253050000000000441e-01 -6.908769999999999634e-01 2.080239999999999867e+00 2.598329999999999806e-01 1.212645999999999891e+00 2.583269999999999733e-01 1.113434000000000035e+00 -1.025929000000000091e+00 1.360182999999999920e+00 1.621483000000000008e+00 6.517969999999999597e-01 6.162200000000000316e-02 -2.489500000000000046e-01 -2.018079999999999874e-01 -1.259492999999999974e+00 -8.368980000000000308e-01 -2.057920000000000194e+00 2.024930000000000063e-01 -3.583700000000000219e-01 -6.973920000000000119e-01 7.127400000000000402e-01 -2.292690000000000006e-01 -1.016642999999999963e+00 -1.098111000000000059e+00 2.856810000000000183e-01 5.969020000000000437e-01 5.513519999999999532e-01 -3.189700000000000174e-02 -9.973279999999999923e-01 1.535174000000000039e+00 -2.992199999999999860e-01 7.845410000000000439e-01 -5.293459999999999832e-01 -3.821930000000000049e-01 1.639199999999999990e+00 -1.298559000000000019e+00 -7.563710000000000155e-01
3.081840000000000135e-01 1.478822000000000081e+00 -1.347928000000000015e+00 -4.658050000000000246e-01 2.009342000000000183e+00 -1.524413999999999936e+00 -1.523784000000000027e+00 -9.774840000000000195e-01 -3.066789999999999794e-01 -1.350149999999999961e+00 9.510399999999999965e-01 -3.683799999999999852e-01 -3.587318999999999924e+00 -9.380739999999999634e-01 -3.420800000000000229e-02 3.220261999999999958e+00 -1.844208000000000069e+00 -1.521220999999999934e+00 -1.774048000000000069e+00 -6.888260000000000494e-01 -1.324044999999999916e+00 -4.887699999999999684e-02 -1.859860999999999986e+00 -1.343398000000000092e+00 -3.868219999999999992e-01 -1.406261999999999901e+00 -1.650133999999999990e+00 -6.603179999999999605e-01 3.060731999999999786e+00 1.389720000000000122e-01 2.995074999999999932e+00 -1.691473000000000004e+00 -2.981507000000000129e+00 -7.279229999999999867e-01 3.209190000000000098e-01 2.442381999999999831e+00 1.779031000000000029e+00 -2.887330000000000174e-01 -1.675022999999999929e+00 2.744199999999999973e-01 -3.886155000000000026e+00 1.937116999999999978e+00 -4.581439999999999957e-01 6.380930000000000213e-01 -1.273052999999999990e+00 -4.797549999999999870e-01 3.474800000000000111e-01 3.896818999999999811e+00 9.263510000000000355e-01 -1.454655000000000031e+00 5.590009999999999701e-01 -1.633277000000000090e+00 4.112759999999999749e-01 2.985292999999999974e+00 -2.325693999999999928e+00 -1.529396999999999895e+00 -2.600385999999999864e+00 1.523538999999999977e+00 8.461929999999999730e-01 3.959788000000000086e+00 2.493779999999999886e-01 -5.359499999999999681e-02 -1.184717000000000020e+00 -1.610484000000000027e+00 -9.177370000000000250e-01 2.484360999999999819e+00 -2.488589999999999858e+00 -1.029250000000000026e-01 2.622700000000000031e-01 3.617167999999999939e+00 -2.628684999999999938e+00 -5.808900000000000174e-01 -9.614549999999999486e-01 1.587952999999999948e+00 -4.447829999999999839e-01 -1.962182000000000093e+00 5.859180000000000499e-01 -3.253409999999999913e-01 7.193310000000000537e-01 -9.528980000000000228e-01 1.617280999999999969e+00 1.016659999999999897e+00 3.316784999999999872e+00 4.450239999999999752e-01 -7.044329999999999758e-01 1.319914000000000032e+00 5.455419999999999714e-01 5.567729999999999624e-01 6.755349999999999966e-01 -3.311348999999999876e+00 4.248609999999999887e-01 2.997797999999999963e+00 1.499799000000000104e+00 1.801063000000000081e+00 2.793899999999999856e-02 -8.007790000000000186e-01 -2.428049999999999931e-01 3.502460000000000018e-01 -2.445704000000000100e+00 -8.005409999999999471e-01 7.433239999999999847e-01 -1.465311999999999948e+00 2.773699000000000137e+00 -5.001900000000000096e-02 2.489685999999999844e+00 1.243627000000000038e+00 3.204429999999999779e-01 4.346690000000000276e-01 -1.437470999999999943e+00 -2.202759999999999996e-01 1.244947000000000026e+00 1.861291000000000029e+00 -1.727505999999999986e+00 -3.312470000000000137e-01 6.495060000000000278e-01 -4.577109999999999790e-01 3.084538999999999920e+00 -1.628449999999999898e-01 -1.767343000000000108e+00 4.400199999999999945e-02 -4.275515999999999650e+00 4.821880000000000055e-01 -1.108227000000000073e+00 1.125178999999999929e+00 8.308900000000000174e-01 8.584119999999999528e-01 1.263756000000000101e+00 -4.059904999999999653e+00 2.761702999999999797e+00 -9.982199999999999407e-02 4.031950000000000256e-01 6.554179999999999451e-01 -1.782211999999999907e+00 2.347109000000000112e+00 -2.846745999999999999e+00 1.722495000000000109e+00 2.024650999999999978e+00 -4.650340000000000029e-01 1.898625000000000007e+00 1.425939999999999985e+00 -1.086518000000000095e+00