1.365029999999999966e+00 8.165200000000000236e-01 4.520559999999999690e+00 1.386009999999999964e+00 7.337000000000000188e-01 1.003022999999999954e+01 -7.349999999999999589e-02 3.684579999999999966e+00 4.444009999999999572e+00 -1.255600000000000049e-01 3.503890000000000171e+00 9.569760000000000488e+00 4.521309999999999718e+00 8.220199999999999729e-01 4.423429999999999751e+00 4.595650000000000013e+00 8.985899999999999999e-01 9.652200000000000557e+00 2.951909999999999812e+00 3.547109999999999985e+00 4.447610000000000063e+00 3.023530000000000051e+00 3.618100000000000094e+00 9.555310000000000414e+00 -2.804999999999999855e-02 1.825350000000000028e+00 1.984369999999999967e+00 -1.912099999999999911e-01 1.895729999999999915e+00 6.889569999999999972e+00 -1.582789999999999919e+00 4.363529999999999909e+00 1.942669999999999897e+00 -1.591699999999999893e+00 4.464920000000000222e+00 6.864320000000000199e+00 3.066390000000000171e+00 1.904360000000000053e+00 1.970979999999999954e+00 3.048059999999999992e+00 1.932490000000000041e+00 6.767179999999999751e+00 1.589150000000000063e+00 4.575510000000000410e+00 1.883389999999999898e+00 1.391729999999999912e+00 4.485170000000000101e+00 7.017579999999999707e+00 1.542229999999999990e+00 1.375680000000000014e+00 8.818070000000000519e+00 1.513169999999999904e+00 9.365999999999999881e-01 2.429840000000000000e+00 1.367890000000000050e+00 1.050869999999999971e+00 7.071329999999999671e+00 -5.100000000000000366e-03 3.711370000000000058e+00 2.551369999999999916e+00 -1.499300000000000077e-01 3.659879999999999800e+00 7.538610000000000255e+00 4.596189999999999998e+00 9.086999999999999522e-01 2.535489999999999799e+00 4.550699999999999967e+00 8.161699999999999511e-01 7.489650000000000141e+00 3.084039999999999893e+00 3.638840000000000074e+00 2.541770000000000085e+00 2.984579999999999789e+00 3.512049999999999894e+00 7.622740000000000293e+00 -1.837799999999999989e-01 1.727020000000000000e+00 4.923420000000000130e+00 -9.501999999999999336e-02 1.771369999999999889e+00 1.009426999999999985e+01 -1.647869999999999946e+00 4.262579999999999814e+00 4.996800000000000352e+00 -1.415410000000000057e+00 4.404580000000000162e+00 1.593199999999999894e-01 2.961570000000000036e+00 1.740939999999999932e+00 4.968790000000000262e+00 2.976869999999999905e+00 1.709359999999999991e+00 1.013246999999999964e+01 1.390910000000000091e+00 4.426409999999999734e+00 5.031430000000000291e+00 1.679669999999999996e+00 4.441970000000000418e+00 1.288000000000000082e-02
1.616700000000000026e+00 9.624899999999999567e-01 4.431549999999999656e+00 1.716749999999999998e+00 1.134319999999999995e+00 8.010000000000000453e-02 7.803000000000000214e-02 3.677979999999999805e+00 4.357409999999999783e+00 1.724400000000000099e-01 3.724790000000000045e+00 9.460330000000000794e+00 4.749189999999999579e+00 9.389499999999999513e-01 4.426179999999999559e+00 4.885299999999999976e+00 9.995399999999999840e-01 9.490790000000000504e+00 3.195269999999999833e+00 3.700359999999999872e+00 4.393690000000000317e+00 3.316180000000000128e+00 3.697839999999999794e+00 9.489000000000000767e+00 8.399999999999999481e-03 1.899040000000000061e+00 1.950860000000000039e+00 3.490999999999999659e-02 1.896619999999999973e+00 6.843779999999999752e+00 -1.536289999999999933e+00 4.580519999999999925e+00 1.921340000000000048e+00 -1.496199999999999974e+00 4.500939999999999941e+00 6.849499999999999922e+00 3.219040000000000123e+00 1.906379999999999963e+00 2.051109999999999989e+00 3.196359999999999868e+00 1.860160000000000036e+00 6.893930000000000113e+00 1.605450000000000044e+00 4.589109999999999800e+00 1.852119999999999989e+00 1.636120000000000019e+00 4.561370000000000147e+00 6.911299999999999777e+00 1.388560000000000016e+00 7.487599999999999811e-01 8.978699999999999903e+00 1.591259999999999897e+00 1.024219999999999908e+00 2.413479999999999848e+00 1.595290000000000097e+00 9.261200000000000543e-01 7.174990000000000201e+00 2.545000000000000040e-02 3.731430000000000025e+00 2.464869999999999894e+00 6.880000000000000004e-02 3.664639999999999898e+00 7.507819999999999716e+00 4.733419999999999739e+00 9.626799999999999802e-01 2.545529999999999848e+00 4.770880000000000010e+00 9.951499999999999790e-01 7.524239999999999817e+00 3.173719999999999875e+00 3.714949999999999974e+00 2.498730000000000118e+00 3.234350000000000058e+00 3.644390000000000018e+00 7.518880000000000230e+00 2.383000000000000049e-02 1.898689999999999989e+00 4.941609999999999836e+00 -4.732000000000000095e-02 1.875089999999999923e+00 7.309999999999999658e-03 -1.519120000000000026e+00 4.535040000000000404e+00 4.960320000000000285e+00 -1.392050000000000010e+00 4.626059999999999839e+00 1.005474000000000068e+01 3.211920000000000108e+00 1.888130000000000086e+00 4.964929999999999843e+00 3.335570000000000146e+00 1.961090000000000000e+00 1.534399999999999931e-01 1.644360000000000044e+00 4.555830000000000268e+00 4.983559999999999768e+00 1.751530000000000031e+00 4.604610000000000092e+00 1.003678999999999988e+01
1.523109999999999964e+00 8.515800000000000036e-01 4.353749999999999787e+00 1.522880000000000011e+00 6.803200000000000358e-01 5.859999999999999931e-02 -2.340000000000000066e-03 3.581399999999999917e+00 4.395929999999999893e+00 -7.399999999999999634e-02 3.441530000000000200e+00 9.439230000000000231e+00 4.650750000000000384e+00 8.507299999999999862e-01 4.367770000000000152e+00 4.601270000000000415e+00 7.896199999999999886e-01 9.432159999999999656e+00 3.065199999999999925e+00 3.577479999999999993e+00 4.409860000000000113e+00 3.064779999999999838e+00 3.493689999999999962e+00 9.475590000000000401e+00 -8.823000000000000287e-02 1.800249999999999906e+00 1.957869999999999999e+00 -5.854000000000000176e-02 1.760790000000000077e+00 6.767459999999999809e+00 -1.576480000000000103e+00 4.373929999999999652e+00 2.058370000000000033e+00 -1.549909999999999899e+00 4.456819999999999560e+00 6.811429999999999652e+00 3.111000000000000210e+00 1.798310000000000075e+00 1.936390000000000056e+00 3.152820000000000178e+00 1.758380000000000054e+00 6.769589999999999996e+00 1.522319999999999895e+00 4.456409999999999982e+00 1.877879999999999994e+00 1.541130000000000111e+00 4.434859999999999580e+00 6.899989999999999846e+00 1.546899999999999942e+00 1.246329999999999938e+00 8.948349999999999582e+00 1.499730000000000008e+00 8.798700000000000410e-01 2.410169999999999924e+00 1.535039999999999960e+00 9.204299999999999704e-01 7.194969999999999644e+00 1.285999999999999990e-02 3.567140000000000200e+00 2.520430000000000170e+00 -3.606000000000000177e-02 3.515089999999999826e+00 7.495930000000000426e+00 4.629669999999999952e+00 8.854400000000000048e-01 2.496490000000000098e+00 4.647739999999999760e+00 8.719299999999999828e-01 7.482669999999999710e+00 3.037739999999999885e+00 3.561960000000000015e+00 2.532750000000000057e+00 3.110809999999999853e+00 3.548999999999999932e+00 7.498140000000000249e+00 -3.089000000000000079e-02 1.764129999999999976e+00 4.912939999999999863e+00 -1.076499999999999957e-01 1.653829999999999911e+00 1.006991000000000014e+01 -1.575620000000000021e+00 4.426969999999999850e+00 4.949559999999999960e+00 -1.581769999999999898e+00 4.255620000000000402e+00 1.732899999999999996e-01 3.103600000000000136e+00 1.770350000000000090e+00 4.917749999999999844e+00 3.066269999999999829e+00 1.677259999999999973e+00 1.006096999999999930e+01 1.530140000000000056e+00 4.483929999999999971e+00 5.043520000000000003e+00 1.474420000000000064e+00 4.345530000000000115e+00 1.005076000000000036e+01
1.635059999999999958e+00 8.932099999999999485e-01 4.449309999999999654e+00 1.784350000000000103e+00 9.116600000000000259e-01 1.886700000000000044e-01 8.755000000000000282e-02 3.597579999999999778e+00 4.339610000000000412e+00 -1.144000000000000052e-02 3.601599999999999913e+00 9.487109999999999488e+00 4.662320000000000242e+00 9.543300000000000116e-01 4.421210000000000306e+00 4.752480000000000260e+00 8.449999999999999734e-01 9.486769999999999925e+00 3.070339999999999847e+00 3.774500000000000188e+00 4.505099999999999660e+00 3.119590000000000085e+00 3.555210000000000203e+00 9.409760000000000346e+00 -1.167099999999999943e-01 1.722190000000000110e+00 1.841599999999999904e+00 1.974000000000000060e-02 1.765789999999999971e+00 6.965600000000000236e+00 -1.651869999999999949e+00 4.360009999999999941e+00 1.980080000000000062e+00 -1.582119999999999971e+00 4.320380000000000109e+00 6.786430000000000184e+00 3.112769999999999815e+00 1.911839999999999984e+00 2.084270000000000067e+00 2.983530000000000015e+00 1.873240000000000016e+00 6.842299999999999827e+00 1.525279999999999969e+00 4.303659999999999819e+00 1.901289999999999925e+00 1.520429999999999948e+00 4.449019999999999975e+00 6.953299999999999592e+00 1.256159999999999943e+00 1.013619999999999965e+00 9.030459999999999710e+00 1.661710000000000020e+00 9.082099999999999618e-01 2.375560000000000116e+00 1.608610000000000095e+00 8.123099999999999765e-01 7.344689999999999941e+00 1.345000000000000015e-02 3.394719999999999960e+00 2.424179999999999779e+00 2.103999999999999967e-02 3.591569999999999929e+00 7.617070000000000007e+00 4.635320000000000107e+00 9.170399999999999663e-01 2.541290000000000049e+00 4.591459999999999653e+00 9.758900000000000352e-01 7.566329999999999778e+00 3.118790000000000173e+00 3.549819999999999975e+00 2.641869999999999941e+00 3.094730000000000203e+00 3.686459999999999848e+00 7.539710000000000356e+00 5.847000000000000114e-02 1.776289999999999925e+00 5.033920000000000172e+00 -4.755999999999999811e-02 1.717659999999999965e+00 1.399000000000000070e-02 -1.432020000000000071e+00 4.408070000000000377e+00 4.936819999999999986e+00 -1.649459999999999926e+00 4.377049999999999663e+00 5.362999999999999712e-02 3.059340000000000170e+00 1.945340000000000069e+00 4.870140000000000136e+00 3.256969999999999921e+00 1.827210000000000001e+00 5.133000000000000063e-02 1.419359999999999955e+00 4.476980000000000182e+00 5.099249999999999616e+00 1.536310000000000064e+00 4.450120000000000076e+00 3.400999999999999857e-02
1.443910000000000027e+00 7.908100000000000129e-01 4.388449999999999740e+00 1.528589999999999893e+00 7.993799999999999795e-01 6.101000000000000173e-02 -4.839000000000000246e-02 3.614860000000000184e+00 4.299229999999999663e+00 -2.576700000000000101e-01 3.631190000000000140e+00 9.329570000000000363e+00 4.566489999999999938e+00 8.785899999999999821e-01 4.385440000000000005e+00 4.427629999999999733e+00 8.359199999999999964e-01 9.375049999999999883e+00 2.963429999999999787e+00 3.573760000000000048e+00 4.400079999999999991e+00 2.912110000000000198e+00 3.540550000000000086e+00 9.479570000000000718e+00 -1.150100000000000011e-01 1.866829999999999989e+00 1.944430000000000103e+00 -2.457000000000000017e-01 1.911929999999999907e+00 6.732599999999999696e+00 -1.644660000000000011e+00 4.364939999999999820e+00 1.965109999999999912e+00 -1.690839999999999899e+00 4.562739999999999796e+00 6.768779999999999575e+00 2.957669999999999799e+00 1.890889999999999960e+00 1.945249999999999924e+00 3.023470000000000102e+00 1.802000000000000046e+00 6.728989999999999583e+00 1.424709999999999921e+00 4.615610000000000213e+00 1.769870000000000054e+00 1.450590000000000046e+00 4.491249999999999964e+00 6.799109999999999765e+00 1.094799999999999995e+00 1.286629999999999940e+00 8.797489999999999810e+00 1.438979999999999926e+00 7.709000000000000297e-01 2.376819999999999933e+00 1.375040000000000040e+00 9.604700000000000459e-01 7.148659999999999570e+00 -1.686999999999999958e-02 3.646640000000000104e+00 2.441279999999999895e+00 -1.976400000000000101e-01 3.700000000000000178e+00 7.430920000000000414e+00 4.489779999999999660e+00 1.012580000000000036e+00 2.624200000000000088e+00 4.501979999999999649e+00 8.620700000000000029e-01 7.477870000000000239e+00 2.945640000000000036e+00 3.663990000000000080e+00 2.566600000000000215e+00 2.921100000000000030e+00 3.518549999999999844e+00 7.493590000000000195e+00 -1.120000000000000023e-01 1.849329999999999918e+00 4.959109999999999907e+00 -2.170300000000000007e-01 1.789099999999999913e+00 9.983399999999999608e+00 -1.684190000000000076e+00 4.484359999999999680e+00 4.874920000000000364e+00 -1.599490000000000078e+00 4.447799999999999976e+00 6.099000000000000254e-02 2.978479999999999794e+00 1.776310000000000056e+00 4.895719999999999850e+00 3.114949999999999886e+00 1.841830000000000078e+00 4.451000000000000095e-02 1.341080000000000050e+00 4.566480000000000317e+00 4.941600000000000215e+00 1.252050000000000107e+00 4.570070000000000299e+00 9.852980000000000516e+00
1.502359999999999918e+00 8.983499999999999819e-01 4.350150000000000183e+00 1.601509999999999989e+00 7.108200000000000074e-01 1.178300000000000042e-01 -1.820000000000000090e-02 3.614689999999999959e+00 4.453619999999999912e+00 -9.263000000000000400e-02 3.619169999999999998e+00 9.555930000000000035e+00 4.605089999999999684e+00 8.991500000000000048e-01 4.394440000000000346e+00 4.573850000000000193e+00 9.135199999999999987e-01 9.529270000000000351e+00 3.012000000000000011e+00 3.600369999999999848e+00 4.461949999999999861e+00 3.027169999999999916e+00 3.587979999999999947e+00 9.589100000000000179e+00 -5.870000000000000218e-03 1.814089999999999980e+00 1.891590000000000105e+00 -1.000100000000000017e-01 1.857679999999999998e+00 6.886040000000000383e+00 -1.610919999999999908e+00 4.418389999999999596e+00 2.024300000000000210e+00 -1.635059999999999958e+00 4.525439999999999685e+00 6.934520000000000017e+00 3.101570000000000160e+00 1.819639999999999924e+00 1.943680000000000074e+00 3.055029999999999912e+00 1.820400000000000018e+00 6.897660000000000124e+00 1.530980000000000008e+00 4.491100000000000314e+00 1.878779999999999895e+00 1.478839999999999932e+00 4.501689999999999969e+00 7.030750000000000277e+00 1.392730000000000024e+00 1.365350000000000064e+00 9.128140000000000143e+00 1.548270000000000035e+00 8.808000000000000274e-01 2.436380000000000212e+00 1.463759999999999950e+00 9.988799999999999901e-01 7.354330000000000034e+00 -1.638999999999999832e-02 3.582730000000000192e+00 2.546769999999999978e+00 -8.665000000000000480e-02 3.623040000000000038e+00 7.573789999999999800e+00 4.639370000000000438e+00 9.215400000000000258e-01 2.486679999999999779e+00 4.589400000000000368e+00 9.659299999999999553e-01 7.582519999999999705e+00 3.037339999999999929e+00 3.588960000000000150e+00 2.567210000000000214e+00 3.048500000000000210e+00 3.593379999999999797e+00 7.605030000000000179e+00 -5.500000000000000028e-02 1.822729999999999961e+00 4.976049999999999862e+00 -1.107000000000000067e-01 1.825669999999999904e+00 1.018892999999999915e+01 -1.623569999999999958e+00 4.495940000000000047e+00 5.010869999999999713e+00 -1.595900000000000096e+00 4.278889999999999638e+00 1.409199999999999897e-01 3.056309999999999860e+00 1.805239999999999956e+00 4.994150000000000311e+00 3.116960000000000175e+00 1.858530000000000015e+00 1.237000000000000079e-02 1.484399999999999942e+00 4.531349999999999767e+00 5.115549999999999820e+00 1.456080000000000041e+00 4.517389999999999795e+00 1.015168000000000070e+01
1.616120000000000001e+00 8.247200000000000086e-01 4.372390000000000221e+00 1.753989999999999938e+00 7.432800000000000518e-01 7.877000000000000668e-02 1.259699999999999986e-01 3.536570000000000213e+00 4.375510000000000232e+00 1.833400000000000030e-01 3.482629999999999892e+00 9.411780000000000257e+00 4.745289999999999786e+00 8.025799999999999601e-01 4.365969999999999906e+00 4.784069999999999823e+00 7.263600000000000056e-01 9.404279999999999973e+00 3.183100000000000041e+00 3.560350000000000126e+00 4.425029999999999575e+00 3.333650000000000002e+00 3.435480000000000089e+00 9.430790000000000006e+00 2.833000000000000101e-02 1.818589999999999929e+00 1.868039999999999923e+00 4.365999999999999742e-02 1.722969999999999891e+00 6.801140000000000185e+00 -1.439389999999999947e+00 4.473320000000000185e+00 2.009489999999999998e+00 -1.434669999999999890e+00 4.403430000000000177e+00 6.852699999999999569e+00 3.211180000000000145e+00 1.839259999999999895e+00 1.986459999999999892e+00 3.220159999999999911e+00 1.715559999999999974e+00 6.793800000000000061e+00 1.637890000000000068e+00 4.511610000000000120e+00 1.879720000000000057e+00 1.671000000000000041e+00 4.424120000000000275e+00 6.876199999999999868e+00 1.476199999999999957e+00 1.094209999999999905e+00 8.959400000000000475e+00 1.591399999999999926e+00 8.841799999999999660e-01 2.315719999999999779e+00 1.622999999999999998e+00 8.067999999999999616e-01 7.224140000000000228e+00 1.028599999999999931e-01 3.605589999999999851e+00 2.516770000000000174e+00 1.061499999999999944e-01 3.497240000000000126e+00 7.444020000000000081e+00 4.720780000000000420e+00 8.795100000000000140e-01 2.506720000000000059e+00 4.750589999999999868e+00 8.142200000000000548e-01 7.446329999999999671e+00 3.158209999999999962e+00 3.613140000000000018e+00 2.528880000000000017e+00 3.245760000000000201e+00 3.494069999999999787e+00 7.466560000000000308e+00 9.001000000000000667e-02 1.756860000000000088e+00 4.924879999999999924e+00 8.648999999999999744e-02 1.684080000000000021e+00 1.001864999999999917e+01 -1.438730000000000064e+00 4.480240000000000222e+00 4.923939999999999984e+00 -1.488210000000000033e+00 4.393259999999999721e+00 1.296799999999999897e-01 3.187739999999999796e+00 1.725170000000000092e+00 4.913660000000000139e+00 3.198290000000000077e+00 1.899799999999999933e+00 6.951999999999999846e-02 1.647289999999999921e+00 4.480559999999999654e+00 4.992399999999999949e+00 1.770420000000000105e+00 4.353880000000000194e+00 1.000034999999999918e+01
1.560380000000000100e+00 1.215610000000000079e+00 4.527190000000000047e+00 1.471919999999999895e+00 1.455119999999999969e+00 2.162499999999999978e-01 -6.499000000000000610e-02 3.931049999999999933e+00 4.411500000000000199e+00 -2.328000000000000069e-01 3.973549999999999915e+00 9.350920000000000343e+00 4.671219999999999928e+00 1.146819999999999951e+00 4.275780000000000136e+00 4.519870000000000054e+00 1.000899999999999901e+00 9.492459999999999454e+00 3.016939999999999955e+00 3.789860000000000007e+00 4.428880000000000372e+00 3.092350000000000154e+00 3.752629999999999910e+00 9.420220000000000482e+00 -1.472400000000000098e-01 1.917799999999999949e+00 1.966350000000000042e+00 -2.123700000000000032e-01 1.929480000000000084e+00 6.897050000000000125e+00 -1.625650000000000039e+00 4.704559999999999853e+00 1.954660000000000064e+00 -1.749649999999999928e+00 4.687020000000000408e+00 6.771709999999999674e+00 3.225569999999999826e+00 1.990550000000000042e+00 1.885699999999999932e+00 2.972059999999999924e+00 1.837979999999999947e+00 7.096169999999999867e+00 1.526399999999999979e+00 4.658489999999999576e+00 1.849860000000000060e+00 1.574440000000000062e+00 4.694329999999999892e+00 6.959529999999999994e+00 1.191389999999999949e+00 7.985400000000000276e-01 9.171900000000000830e+00 1.602419999999999956e+00 1.034550000000000081e+00 2.588220000000000187e+00 1.334109999999999907e+00 1.005319999999999991e+00 7.370099999999999874e+00 -1.149300000000000044e-01 3.805019999999999847e+00 2.504950000000000010e+00 -2.253199999999999925e-01 3.697799999999999976e+00 7.558379999999999654e+00 4.652140000000000164e+00 9.733800000000000230e-01 2.369600000000000151e+00 4.457189999999999763e+00 1.092950000000000088e+00 7.648659999999999570e+00 3.161719999999999864e+00 3.863939999999999930e+00 2.408720000000000194e+00 3.036090000000000177e+00 3.748040000000000038e+00 7.537589999999999790e+00 5.134999999999999981e-02 2.062959999999999905e+00 5.036270000000000024e+00 -2.665500000000000091e-01 1.923419999999999908e+00 1.309999999999999967e-03 -1.693829999999999947e+00 4.613459999999999894e+00 4.926400000000000112e+00 -1.770429999999999948e+00 4.742280000000000051e+00 1.011866999999999983e+01 3.156280000000000197e+00 2.006310000000000038e+00 4.967570000000000263e+00 2.992509999999999781e+00 2.127139999999999809e+00 1.004198000000000057e+01 1.488140000000000018e+00 4.906489999999999796e+00 5.077350000000000030e+00 1.338689999999999936e+00 4.657359999999999722e+00 9.962049999999999628e+00
1.507220000000000004e+00 1.010350000000000081e+00 4.354790000000000383e+00 1.584260000000000002e+00 9.046999999999999487e-01 1.124799999999999967e-01 -2.719999999999999848e-02 3.670119999999999827e+00 4.346409999999999663e+00 -6.450000000000000178e-02 3.695059999999999789e+00 9.393610000000000682e+00 4.553390000000000271e+00 9.840200000000000058e-01 4.318529999999999980e+00 4.524469999999999992e+00 1.088379999999999903e+00 9.415369999999999351e+00 3.014619999999999855e+00 3.690949999999999953e+00 4.379410000000000025e+00 2.994050000000000100e+00 3.704699999999999882e+00 9.398619999999999308e+00 -6.436000000000000054e-02 1.819099999999999939e+00 1.939489999999999936e+00 -1.729100000000000081e-01 1.913310000000000066e+00 6.737390000000000434e+00 -1.615750000000000020e+00 4.396530000000000271e+00 1.935990000000000100e+00 -1.607169999999999987e+00 4.492350000000000065e+00 6.804890000000000327e+00 3.047330000000000094e+00 1.870740000000000069e+00 1.938919999999999977e+00 2.999490000000000212e+00 1.902050000000000018e+00 6.831879999999999953e+00 1.460439999999999960e+00 4.490980000000000416e+00 1.844370000000000065e+00 1.469270000000000076e+00 4.546429999999999971e+00 6.938049999999999606e+00 1.137860000000000094e+00 1.130090000000000039e+00 8.874150000000000205e+00 1.509570000000000078e+00 9.226400000000000157e-01 2.438810000000000144e+00 1.420029999999999903e+00 1.006420000000000092e+00 7.164579999999999949e+00 -2.785999999999999935e-02 3.592579999999999885e+00 2.497640000000000082e+00 -8.762000000000000344e-02 3.666869999999999852e+00 7.486239999999999561e+00 4.583050000000000068e+00 9.425599999999999534e-01 2.471540000000000070e+00 4.539089999999999847e+00 1.019439999999999902e+00 7.506630000000000358e+00 3.018479999999999830e+00 3.587709999999999955e+00 2.551839999999999886e+00 3.030060000000000198e+00 3.650980000000000114e+00 7.520480000000000054e+00 -5.444999999999999840e-02 1.856880000000000086e+00 4.886739999999999640e+00 -7.519000000000000683e-02 1.908700000000000063e+00 1.006119999999999948e+01 -1.571329999999999893e+00 4.508460000000000356e+00 4.926680000000000170e+00 -1.558349999999999902e+00 4.305869999999999642e+00 1.042399999999999993e-01 3.043070000000000164e+00 1.874290000000000012e+00 4.952009999999999579e+00 3.117780000000000218e+00 1.843790000000000040e+00 9.277000000000000524e-02 1.478329999999999922e+00 4.516869999999999941e+00 5.053659999999999819e+00 1.481749999999999901e+00 4.567000000000000171e+00 1.004372000000000043e+01
1.557839999999999892e+00 9.620499999999999607e-01 4.431989999999999874e+00 1.513679999999999914e+00 7.645100000000000229e-01 3.257000000000000173e-02 -1.259000000000000119e-01 3.595139999999999780e+00 4.418549999999999756e+00 -2.985300000000000176e-01 3.731570000000000054e+00 9.422639999999999461e+00 4.615779999999999994e+00 9.504000000000000226e-01 4.235710000000000086e+00 4.349560000000000315e+00 1.092119999999999980e+00 9.407569999999999766e+00 2.985640000000000072e+00 3.802779999999999827e+00 4.347979999999999734e+00 2.910330000000000084e+00 3.848759999999999959e+00 9.363120000000000331e+00 1.384999999999999946e-02 1.957510000000000083e+00 1.925359999999999960e+00 -1.753800000000000081e-01 1.802119999999999944e+00 6.794559999999999711e+00 -1.683049999999999935e+00 4.481469999999999843e+00 2.065539999999999932e+00 -1.767320000000000002e+00 4.457519999999999705e+00 6.823949999999999960e+00 3.008939999999999948e+00 1.644539999999999891e+00 1.730720000000000036e+00 3.079629999999999868e+00 1.968709999999999960e+00 6.721680000000000099e+00 1.513109999999999955e+00 4.506490000000000329e+00 1.815460000000000074e+00 1.303180000000000005e+00 4.544419999999999682e+00 6.983430000000000248e+00 1.495630000000000015e+00 1.572670000000000012e+00 8.725550000000000139e+00 1.393210000000000059e+00 1.025349999999999984e+00 2.445170000000000066e+00 1.338750000000000107e+00 9.549600000000000311e-01 7.165980000000000238e+00 8.630000000000000171e-02 3.740450000000000053e+00 2.526510000000000034e+00 -1.997700000000000031e-01 3.511299999999999866e+00 7.605660000000000309e+00 4.610960000000000392e+00 1.031539999999999901e+00 2.347280000000000033e+00 4.428840000000000110e+00 1.012399999999999967e+00 7.451290000000000191e+00 2.935960000000000125e+00 3.457260000000000222e+00 2.450569999999999915e+00 2.884650000000000158e+00 3.632620000000000182e+00 7.489370000000000083e+00 -2.773000000000000118e-02 1.797400000000000109e+00 4.935649999999999871e+00 -3.362299999999999733e-01 1.932749999999999968e+00 9.995430000000000703e+00 -1.585250000000000048e+00 4.489880000000000315e+00 4.821679999999999744e+00 -1.586459999999999981e+00 4.367869999999999919e+00 2.554899999999999949e-01 3.059410000000000185e+00 1.765320000000000000e+00 4.835960000000000036e+00 2.930410000000000181e+00 1.949600000000000000e+00 9.949749999999999872e+00 1.505160000000000053e+00 4.559549999999999770e+00 5.042950000000000266e+00 1.312889999999999890e+00 4.608920000000000350e+00 9.845169999999999533e+00
1.415659999999999918e+00 8.426299999999999901e-01 4.310859999999999914e+00 1.291390000000000038e+00 8.441400000000000015e-01 2.461999999999999952e-02 -2.235300000000000065e-01 3.532950000000000035e+00 4.347100000000000186e+00 -3.394599999999999840e-01 3.666780000000000150e+00 9.549950000000000827e+00 4.464400000000000368e+00 8.287200000000000122e-01 4.328909999999999592e+00 4.337920000000000442e+00 8.250399999999999956e-01 9.593140000000000001e+00 2.842859999999999943e+00 3.646040000000000170e+00 4.485710000000000086e+00 2.938530000000000086e+00 3.606170000000000098e+00 9.535360000000000724e+00 -1.870600000000000041e-01 1.891569999999999974e+00 2.012379999999999836e+00 -2.164300000000000113e-01 1.845690000000000053e+00 6.843479999999999563e+00 -1.701910000000000034e+00 4.618240000000000123e+00 2.020099999999999785e+00 -1.749079999999999968e+00 4.581339999999999968e+00 6.767100000000000115e+00 3.051829999999999821e+00 1.959319999999999951e+00 1.964399999999999924e+00 2.959480000000000111e+00 1.880100000000000104e+00 6.823699999999999655e+00 1.501130000000000075e+00 4.590880000000000294e+00 1.906179999999999986e+00 1.358559999999999990e+00 4.592419999999999725e+00 6.996129999999999960e+00 1.303930000000000033e+00 1.446870000000000100e+00 8.970299999999999940e+00 1.429929999999999923e+00 1.030520000000000103e+00 2.375119999999999898e+00 1.445629999999999971e+00 9.076600000000000223e-01 7.175239999999999618e+00 -1.193800000000000000e-01 3.717740000000000045e+00 2.470239999999999991e+00 -2.258300000000000030e-01 3.629090000000000149e+00 7.566609999999999836e+00 4.542620000000000324e+00 9.902499999999999636e-01 2.444209999999999994e+00 4.552419999999999689e+00 9.515599999999999614e-01 7.522369999999999557e+00 3.040319999999999911e+00 3.643730000000000135e+00 2.574370000000000047e+00 2.956259999999999888e+00 3.499540000000000095e+00 7.646919999999999717e+00 -1.756399999999999906e-01 1.795479999999999965e+00 4.976530000000000342e+00 -1.540300000000000002e-01 1.927570000000000006e+00 6.858999999999999819e-02 -1.745730000000000004e+00 4.536120000000000374e+00 4.846449999999999925e+00 -1.656919999999999948e+00 4.469159999999999577e+00 1.756900000000000128e-01 2.942769999999999886e+00 1.763949999999999907e+00 4.839470000000000383e+00 3.009149999999999991e+00 1.882039999999999935e+00 6.798999999999999488e-02 1.266049999999999898e+00 4.516200000000000436e+00 5.032199999999999562e+00 1.431359999999999966e+00 4.616950000000000109e+00 1.059000000000000045e-02
1.436169999999999947e+00 7.985499999999999821e-01 4.453759999999999941e+00 1.391059999999999963e+00 6.845599999999999463e-01 9.869619999999999393e+00 -1.557999999999999940e-01 3.572859999999999925e+00 4.369130000000000180e+00 -3.752800000000000025e-01 3.777420000000000222e+00 9.467639999999999390e+00 4.466479999999999784e+00 8.974199999999999955e-01 4.179350000000000342e+00 4.424850000000000172e+00 1.000450000000000061e+00 9.507089999999999819e+00 2.906789999999999985e+00 3.694100000000000161e+00 4.362669999999999604e+00 2.720720000000000027e+00 3.602040000000000131e+00 9.413449999999999207e+00 -1.003399999999999986e-01 2.014069999999999805e+00 1.975019999999999998e+00 -4.193799999999999750e-01 2.007429999999999826e+00 6.818629999999999747e+00 -1.866740000000000066e+00 4.678410000000000402e+00 2.013459999999999805e+00 -1.717189999999999994e+00 4.560520000000000351e+00 6.886050000000000004e+00 2.964710000000000178e+00 1.979459999999999997e+00 2.024220000000000130e+00 2.805219999999999825e+00 1.987999999999999989e+00 6.799990000000000201e+00 1.355199999999999960e+00 4.648360000000000269e+00 1.917620000000000102e+00 1.211149999999999949e+00 4.667830000000000368e+00 6.877539999999999765e+00 7.829099999999999948e-01 1.181999999999999940e+00 8.797319999999999141e+00 1.428739999999999899e+00 9.787200000000000344e-01 2.454649999999999999e+00 1.188460000000000072e+00 1.002590000000000092e+00 7.162829999999999586e+00 -1.879699999999999982e-01 3.736779999999999990e+00 2.571120000000000072e+00 -2.952699999999999769e-01 3.763220000000000010e+00 7.613809999999999967e+00 4.619030000000000413e+00 1.032270000000000021e+00 2.470439999999999969e+00 4.401119999999999699e+00 1.052040000000000086e+00 7.606329999999999814e+00 2.946219999999999839e+00 3.822919999999999874e+00 2.477100000000000080e+00 2.928830000000000044e+00 3.763650000000000162e+00 7.532799999999999940e+00 -2.777700000000000169e-01 1.772189999999999932e+00 4.907840000000000202e+00 -2.257500000000000062e-01 1.936099999999999932e+00 1.008051999999999992e+01 -1.748380000000000045e+00 4.532469999999999999e+00 4.987800000000000011e+00 -1.761889999999999956e+00 4.294340000000000046e+00 2.061000000000000054e-01 2.935960000000000125e+00 1.768299999999999983e+00 4.949650000000000105e+00 3.191180000000000128e+00 1.825029999999999930e+00 1.118799999999999933e-01 1.389850000000000030e+00 4.454710000000000392e+00 5.047769999999999868e+00 1.139809999999999990e+00 4.659189999999999721e+00 1.008322000000000074e+01