8.751039999999999930e-01 -1.965459999999999985e-01 -8.172279999999999545e-01 6.062520000000000131e-01 -1.421623000000000081e+00 3.629330000000000056e-01 -4.908870000000000178e-01 -2.891404000000000085e+00 -1.476142000000000065e+00 1.447419000000000011e+00 1.311781000000000086e+00 -1.085782000000000025e+00 -5.928360000000000296e-01 1.188160000000000049e-01 -3.397470000000000212e-01 -1.433896000000000059e+00 -1.478731000000000018e+00 -2.167346000000000217e+00 5.942000000000000060e-02 -5.543700000000000017e-02 -9.219429999999999570e-01 1.692061999999999955e+00 -1.633915999999999924e+00 -7.356920000000000126e-01 -3.733710000000000084e-01 9.476099999999999524e-01 5.142000000000000043e-02 -1.287903000000000020e+00 -4.948819999999999886e-01 -1.469359000000000082e+00 7.277169999999999472e-01 2.448704999999999909e+00 1.180431999999999926e+00 -2.220251000000000197e+00 1.129005000000000036e+00 6.603569999999999718e-01 1.268920000000000048e-01 -1.508383999999999947e+00 -3.683750000000000080e-01 1.194960000000000050e-01 -2.126700000000000035e+00 8.273460000000000258e-01 -8.336090000000000444e-01 -9.431009999999999671e-01 6.057780000000000387e-01 1.324869000000000074e+00 -8.494939999999999714e-01 -8.691719999999999446e-01 4.981220000000000092e-01 1.266859999999999931e-01 7.735490000000000421e-01 -3.246419999999999861e-01 -4.835840000000000138e-01 8.870270000000000099e-01 1.637180000000000080e+00 -2.160125999999999991e+00 -1.673419999999999908e-01 9.440920000000000423e-01 -1.884964000000000084e+00 -2.025069999999999926e-01 1.793190000000000062e-01 -1.240887999999999991e+00 1.395969999999999933e+00 3.932149999999999812e-01 9.613629999999999676e-01 -7.017799999999999594e-01 -4.961760000000000059e-01 2.581096000000000057e+00 1.153907999999999934e+00 -1.048016999999999976e+00 -2.287659999999999971e-01 6.055439999999999712e-01 5.676750000000000407e-01 1.732215999999999978e+00 -7.350800000000000389e-02 4.443509999999999960e-01 1.217195999999999945e+00 6.450270000000000170e-01 -1.330721000000000043e+00 6.988099999999999867e-02 1.542102000000000084e+00 -1.352187000000000028e+00 2.716493999999999964e+00 1.102716000000000030e+00 -1.760504000000000069e+00 -5.940480000000000205e-01 -1.281028000000000056e+00 1.500980000000000092e-01 1.837399999999999867e-01 -7.820920000000000094e-01 1.504876000000000102e+00 1.353798000000000057e+00 3.081969999999999987e-01 2.224126000000000047e+00 1.020008999999999943e+00 1.327325000000000088e+00 -1.977286000000000099e+00 2.274198999999999860e+00 2.941200000000000064e-02
-6.050500000000000322e-02 3.954550000000000010e-01 -1.590350000000000097e-01 6.485549999999999926e-01 4.544190000000000174e-01 -6.084960000000000369e-01 -1.804550000000000043e-01 2.568659999999999832e-01 1.660260000000000069e-01 -3.630450000000000066e-01 7.818700000000000649e-02 -4.243259999999999810e-01 9.114500000000000379e-02 4.847339999999999982e-01 -1.603660000000000085e-01 -5.117819999999999592e-01 9.207999999999999519e-01 -3.918980000000000241e-01 -1.709880000000000011e-01 -4.176199999999999912e-01 5.619999999999999996e-03 6.776000000000000079e-02 3.590340000000000198e-01 -6.260520000000000529e-01 -9.604709999999999637e-01 2.600080000000000169e-01 -1.332730000000000026e-01 -3.899940000000000073e-01 5.364800000000000124e-02 -2.373580000000000134e-01 -3.087619999999999809e-01 -3.964949999999999863e-01 -4.725210000000000243e-01 -2.419200000000000170e-02 -4.490810000000000080e-01 -3.713429999999999787e-01 1.534659999999999913e-01 3.342519999999999936e-01 -5.397739999999999760e-01 2.576780000000000181e-01 1.440819999999999879e-01 -3.525299999999999961e-02 4.164099999999999746e-02 -2.704980000000000162e-01 1.896269999999999900e-01 3.745350000000000068e-01 -1.355000000000000085e-03 5.135300000000000420e-01 -4.364709999999999979e-01 -1.235649999999999943e-01 2.376769999999999994e-01 1.440359999999999974e-01 -3.483069999999999777e-01 3.222289999999999877e-01 6.947200000000000597e-02 6.087169999999999526e-01 3.979409999999999892e-01 2.690210000000000101e-01 -6.461489999999999734e-01 2.909070000000000267e-01 3.446210000000000107e-01 1.164450000000000068e-01 -7.211099999999999455e-02 4.287790000000000212e-01 2.160580000000000001e-01 -2.887500000000000136e-02 2.130360000000000031e-01 -2.672749999999999848e-01 -6.792299999999999727e-02 -1.127799999999999983e-02 -1.957700000000000065e-02 3.690180000000000127e-01 -3.892430000000000057e-01 2.757359999999999811e-01 9.019699999999999940e-02 2.349880000000000024e-01 -2.691879999999999828e-01 2.287399999999999850e-02 4.515219999999999789e-01 -3.447029999999999816e-01 3.038759999999999795e-01 5.830870000000000219e-01 1.011200000000000015e-01 -2.299869999999999970e-01 2.082499999999999907e-01 -1.964039999999999953e-01 4.013760000000000105e-01 -2.951139999999999874e-01 -1.921519999999999895e-01 -1.331219999999999903e-01 -9.040399999999999825e-02 -9.463610000000000078e-01 3.236010000000000275e-01 -3.534610000000000252e-01 -1.090570000000000012e-01 5.911279999999999868e-01 -3.542399999999999716e-02 -6.177400000000000252e-02 4.660850000000000271e-01
1.687049999999999939e-01 2.735879999999999979e-01 2.290659999999999918e-01 -2.661589999999999789e-01 -1.451010000000000078e-01 -5.107679999999999998e-01 2.891779999999999906e-01 -2.544500000000000095e-01 1.790039999999999965e-01 4.816600000000000048e-02 1.215800000000000040e-02 -8.678900000000000503e-02 -5.048099999999999810e-02 1.265469999999999928e-01 3.977599999999999886e-02 6.303599999999999481e-02 -2.363530000000000075e-01 -3.422850000000000059e-01 -8.584200000000000164e-02 -5.718999999999999778e-02 3.489699999999999747e-02 7.841399999999999759e-02 -2.761700000000000266e-01 -5.886719999999999731e-01 3.317570000000000241e-01 4.741000000000000075e-02 -9.076560000000000183e-01 -3.670240000000000169e-01 1.902939999999999909e-01 7.835370000000000390e-01 -4.482309999999999905e-01 4.066110000000000002e-01 -8.562220000000000386e-01 -4.239269999999999983e-01 -2.766429999999999723e-01 1.341396999999999951e+00 -3.607389999999999763e-01 1.506800000000000084e-01 -4.943980000000000041e-01 -1.433510000000000062e-01 5.745730000000000004e-01 8.282249999999999890e-01 6.552099999999999591e-02 4.505879999999999885e-01 -3.712030000000000052e-01 -4.513299999999999951e-02 2.205500000000000169e-02 1.126873999999999931e+00 -2.788910000000000000e-01 1.223849999999999938e-01 1.180250999999999939e+00 3.558899999999999841e-01 -4.757770000000000055e-01 5.551400000000000085e-02 2.293679999999999886e-01 -7.101110000000000477e-01 -7.275289999999999813e-01 -3.886459999999999915e-01 4.806699999999999862e-02 6.912080000000000446e-01 9.754000000000000517e-03 2.357120000000000049e-01 -3.062389999999999834e-01 -6.695500000000000063e-02 -3.560050000000000159e-01 1.445829999999999893e-01 3.603499999999999759e-02 -3.819699999999999762e-01 -2.275139999999999940e-01 6.111459999999999670e-01 1.444509999999999961e-01 3.327820000000000222e-01 2.128210000000000102e-01 -1.332669999999999966e-01 -1.875509999999999955e-01 -1.616360000000000019e-01 1.770069999999999977e-01 -3.971339999999999870e-01 5.116990000000000149e-01 -2.867100000000000204e-01 3.619600000000000040e-01 -1.329579999999999929e-01 1.849530000000000063e-01 -7.323490000000000277e-01 -1.606499999999999873e-01 5.621580000000000465e-01 2.139500000000000013e-01 -7.324600000000000555e-02 -1.307700000000000008e-02 -3.902439999999999798e-01 1.063920000000000005e-01 4.353900000000000131e-02 3.579789999999999917e-01 3.825699999999999934e-02 -4.381829999999999892e-01 -7.615769999999999484e-01 2.977279999999999927e-01 2.682309999999999972e-01 -1.287400000000000003e-02
-9.402850000000000374e-01 3.291859999999999786e-01 -1.547187000000000090e+00 -1.315018000000000020e+00 -1.062762999999999902e+00 -1.789266000000000023e+00 -1.256763000000000075e+00 -2.093154000000000181e+00 -4.462889999999999913e-01 1.032100000000000031e-02 -7.299529999999999630e-01 1.178609999999999935e+00 1.378359999999999863e-01 4.172819999999999863e-01 1.897699999999999942e-01 -8.883799999999999475e-01 1.879869999999999874e-01 5.958409999999999540e-01 4.966909999999999936e-01 -1.262078999999999951e+00 -8.975870000000000237e-01 7.093019999999999881e-01 -3.729700000000000237e-01 1.777281000000000111e+00 4.291780000000000039e-01 -9.464550000000000463e-01 8.605019999999999891e-01 -1.168350000000000000e+00 2.600190000000000001e-01 -1.007139000000000006e+00 1.518971999999999989e+00 8.737000000000000322e-02 -4.493860000000000077e-01 1.088808999999999916e+00 8.935370000000000257e-01 1.757514000000000021e+00 1.730339999999999989e+00 -2.287710000000000132e+00 -1.802535999999999916e+00 2.332214000000000009e+00 -1.241089999999999971e-01 6.773620000000000196e-01 2.229389999999999983e-01 1.821733000000000047e+00 -3.881609999999999783e-01 -6.076169999999999627e-01 1.391666000000000070e+00 5.963239999999999652e-01 3.567389999999999728e-01 -6.016010000000000524e-01 2.710369000000000028e+00 -2.650652000000000008e+00 -1.210034000000000054e+00 7.476850000000000440e-01 -8.581389999999999851e-01 3.155140000000000167e-01 -2.539432999999999829e+00 -8.786129999999999773e-01 2.300530000000000186e+00 1.192730000000000068e+00 -6.104589999999999739e-01 -1.473336999999999897e+00 -6.728960000000000496e-01 4.239379999999999815e-01 -1.341866000000000003e+00 6.766550000000000065e-01 9.768179999999999641e-01 3.943800000000000083e-02 -1.099301000000000084e+00 -9.011550000000000393e-01 2.976306999999999814e+00 4.494850000000000234e-01 3.618400000000000089e-02 -1.660512999999999906e+00 -9.367020000000000346e-01 -8.619970000000000132e-01 -3.300290000000000168e-01 2.167610000000000092e-01 -6.516889999999999628e-01 1.865402999999999922e+00 -1.158638999999999974e+00 -2.060160999999999909e+00 6.891709999999999781e-01 6.536300000000000443e-02 6.843329999999999691e-01 -4.802379999999999982e-01 2.048580000000000123e-01 1.309085000000000054e+00 -7.587920000000000220e-01 1.883469000000000060e+00 1.359706999999999999e+00 1.805460000000000065e+00 2.728220000000000089e-01 2.538736000000000104e+00 1.650179999999999980e+00 -3.458049999999999735e-01 -7.128649999999999709e-01 -2.951810000000000267e-01 -9.730760000000000520e-01
-2.317889999999999950e-01 1.301263999999999976e+00 -6.048649999999999860e-01 5.633089999999999486e-01 -8.942799999999999361e-02 -1.316359999999999975e+00 -1.123602999999999907e+00 -4.831099999999999978e-02 6.140480000000000382e-01 4.173330000000000095e-01 -4.812020000000000186e-01 -2.637220000000000120e-01 -6.594489999999999519e-01 2.580599999999999908e-02 8.544699999999999518e-01 1.622740000000000016e-01 1.120241000000000042e+00 -1.065468999999999999e+00 -9.794599999999999973e-01 4.410930000000000129e-01 -1.552449999999999941e-01 -1.321922000000000041e+00 -7.084100000000000119e-02 -2.082987999999999840e+00 -7.063800000000000634e-02 -6.380390000000000228e-01 -5.445950000000000513e-01 5.355820000000000025e-01 -3.045910000000000006e-01 1.387423999999999991e+00 2.442010000000000014e-01 1.696347000000000049e+00 -4.566359999999999864e-01 -6.599920000000000231e-01 -1.173420000000000019e-01 1.000729999999999897e+00 3.730310000000000015e-01 -9.153890000000000082e-01 3.983209999999999806e-01 -5.183600000000000430e-01 -3.113980000000000081e-01 1.476191000000000031e+00 3.364139999999999908e-01 5.366480000000000139e-01 1.211257000000000028e+00 -8.617430000000000367e-01 6.026650000000000063e-01 1.876249999999999973e+00 3.294500000000000206e-02 3.892299999999999927e-02 3.069570999999999827e+00 -2.850449999999999928e-01 1.378984999999999905e+00 3.004359999999999808e-01 4.547939999999999761e-01 -7.151229999999999531e-01 -2.891382999999999814e+00 -1.554520000000000068e-01 -3.665559999999999929e-01 1.263739999999999863e-01 3.242479999999999807e-01 -9.573760000000000048e-01 -4.907580000000000275e-01 7.134589999999999543e-01 -8.423680000000000057e-01 -3.291841999999999935e+00 2.710850000000000204e-01 3.305620000000000225e-01 -1.376708999999999961e+00 -9.080179999999999918e-01 -3.088339999999999974e-01 -1.455108999999999986e+00 6.832960000000000145e-01 8.636690000000000200e-01 -6.098130000000000495e-01 4.283460000000000045e-01 -3.309030000000000027e-01 -1.769312999999999914e+00 -6.619220000000000104e-01 6.546070000000000499e-01 9.804399999999999782e-01 5.760769999999999502e-01 -2.908459999999999934e-01 5.426670000000000105e-01 -1.872759999999999980e-01 -4.808439999999999936e-01 1.356829999999999981e+00 -6.787600000000000577e-02 5.859199999999999825e-02 -2.081510000000000027e-01 -4.926860000000000128e-01 7.033129999999999660e-01 1.009014000000000078e+00 1.849129999999999940e+00 -5.252400000000000402e-01 2.780290000000000261e-01 1.219707000000000097e+00 -1.958085000000000075e+00 2.100903999999999883e+00
-4.052499999999999852e-02 2.805670000000000108e-01 9.345609999999999751e-01 6.592999999999999902e-03 -5.213210000000000344e-01 -9.052689999999999904e-01 -3.668669999999999987e-01 1.109119999999999967e-01 -7.657500000000000417e-02 -1.059210000000000013e-01 -2.331360000000000099e-01 -4.386490000000000111e-01 6.698900000000000687e-02 2.038230000000000042e-01 2.690359999999999974e-01 8.533799999999999719e-02 4.067680000000000184e-01 -2.460390000000000077e-01 1.746800000000000089e-02 1.809649999999999870e-01 9.722300000000000386e-02 1.001299999999999933e-02 2.014920000000000044e-01 -7.492060000000000386e-01 -7.482680000000000442e-01 4.715570000000000039e-01 3.004069999999999796e-01 -2.896489999999999898e-01 1.417619999999999991e-01 -2.567119999999999957e-01 6.317519999999999802e-01 -5.096260000000000234e-01 -1.913499999999999923e-02 8.523999999999999633e-02 -6.896000000000000220e-03 2.893430000000000168e-01 4.799889999999999990e-01 5.029649999999999954e-01 -1.452200000000000019e-02 3.514410000000000034e-01 3.443559999999999954e-01 -7.208599999999999730e-02 -4.105389999999999873e-01 1.679779999999999884e-01 -1.625459999999999960e-01 1.990629999999999900e-01 3.303349999999999898e-01 -3.069099999999999953e-02 1.174629999999999980e-01 2.028010000000000090e-01 -1.863499999999999879e-02 -2.081580000000000097e-01 6.507000000000000284e-02 -4.024300000000000099e-01 7.883099999999999830e-02 -6.778229999999999533e-01 -8.644300000000000594e-02 1.218840000000000062e-01 2.640350000000000197e-01 1.733909999999999896e-01 -1.042590000000000044e-01 3.768300000000000122e-02 3.976500000000000035e-01 2.775199999999999889e-02 -3.384480000000000266e-01 3.705379999999999785e-01 -2.818999999999999891e-03 -5.427330000000000210e-01 2.352800000000000030e-02 -1.373880000000000101e-01 -7.562900000000000178e-02 1.909460000000000046e-01 -2.053159999999999985e-01 1.572699999999999931e-01 1.496240000000000070e-01 -9.659999999999999533e-04 -1.051969999999999988e-01 3.877200000000000091e-02 1.795869999999999966e-01 -4.320500000000000035e-02 -3.048199999999999868e-02 2.084699999999999886e-01 -1.960129999999999928e-01 -2.307309999999999917e-01 1.068700000000000032e-02 5.325889999999999791e-01 4.445149999999999935e-01 -1.976699999999999985e-02 3.389999999999999958e-02 -2.116639999999999910e-01 -4.710409999999999875e-01 -4.553760000000000030e-01 3.062159999999999882e-01 2.536379999999999746e-01 -4.420700000000000185e-01 -4.754329999999999945e-01 1.792829999999999979e-01 -4.893560000000000132e-01 4.414980000000000016e-01
1.389499999999999902e-01 2.394739999999999924e-01 -4.588539999999999841e-01 1.331970000000000098e-01 -1.192150000000000015e-01 -5.903310000000000501e-01 -1.344220000000000137e-01 5.388570000000000304e-01 2.584589999999999943e-01 3.236299999999999732e-01 -4.406979999999999786e-01 -4.214019999999999988e-01 -2.994099999999999887e-02 3.881069999999999798e-01 1.153710000000000013e-01 5.074640000000000262e-01 6.267599999999999560e-02 -2.995619999999999949e-01 2.140509999999999913e-01 8.041800000000000337e-02 -3.444050000000000167e-01 -8.864500000000000157e-02 1.021780000000000049e-01 -7.179800000000000071e-02 -4.079980000000000273e-01 3.037719999999999865e-01 5.760699999999999849e-02 8.721099999999999686e-02 2.372930000000000039e-01 -1.308030000000000026e-01 -7.448099999999999721e-01 -5.160540000000000127e-01 -1.579329999999999901e-01 1.839880000000000126e-01 2.767789999999999973e-01 -1.024990000000000068e-01 -7.926099999999999812e-02 1.608179999999999887e-01 -3.607719999999999816e-01 6.619500000000000384e-02 -7.461299999999999877e-02 3.591940000000000133e-01 -9.284999999999999851e-03 3.261510000000000242e-01 -3.501389999999999780e-01 9.349100000000000465e-02 7.798900000000000277e-02 7.346319999999999517e-01 -2.950429999999999997e-01 3.356250000000000067e-01 9.898010000000000419e-01 3.649470000000000214e-01 3.352200000000000318e-02 5.658109999999999529e-01 1.507120000000000126e-01 5.686499999999999888e-02 -8.581710000000000171e-01 1.351090000000000069e-01 -2.870309999999999806e-01 -7.034300000000000275e-02 3.397700000000000164e-01 9.120399999999999341e-02 3.860069999999999890e-01 1.820300000000000043e-02 -1.543140000000000067e-01 -2.082579999999999987e-01 -1.328539999999999999e-01 -4.591580000000000106e-01 1.557499999999999996e-01 5.204389999999999850e-01 7.527300000000000657e-02 5.832349999999999479e-01 -2.580640000000000156e-01 -6.523800000000000432e-02 -7.456599999999999340e-02 -4.510759999999999770e-01 -3.272180000000000089e-01 4.213900000000000284e-02 -6.515300000000000258e-02 -5.568100000000000133e-02 -2.643490000000000006e-01 -2.425499999999999878e-01 -7.594629999999999992e-01 -6.072000000000000140e-03 -4.501780000000000226e-01 -4.019000000000000003e-03 2.200819999999999999e-01 1.321370000000000045e-01 4.390370000000000106e-01 -1.519929999999999892e-01 -1.441890000000000116e-01 -1.533319999999999961e-01 2.754170000000000229e-01 3.714930000000000176e-01 -4.724300000000000166e-01 -2.436100000000000071e-02 -2.475179999999999880e-01 6.242600000000000232e-02 2.031070000000000098e-01
-2.082300000000000123e-02 -2.408872000000000124e+00 -1.412938000000000027e+00 -2.393000000000000162e-03 -4.976590000000000180e-01 -1.297242999999999924e+00 5.027150000000000230e-01 -7.994790000000000507e-01 -7.478500000000000425e-02 -8.775760000000000227e-01 -2.021757000000000026e+00 1.621281999999999890e+00 7.476279999999999593e-01 -8.751670000000000282e-01 1.948946000000000067e+00 -5.547260000000000524e-01 7.596549999999999692e-01 4.898759999999999781e-01 4.380689999999999862e-01 1.153259000000000034e+00 -8.784140000000000281e-01 -8.485340000000000105e-01 2.370751999999999970e+00 -9.941000000000000184e-03 3.581409999999999871e-01 1.063250999999999946e+00 2.835400000000000073e-02 -5.611019999999999897e-01 6.579589999999999606e-01 5.039679999999999715e-01 4.294620000000000104e-01 9.379950000000000232e-01 -1.036011999999999933e+00 2.519910000000000205e-01 -5.569279999999999786e-01 1.816195000000000004e+00 -7.627399999999999736e-01 4.996929999999999983e-01 2.721850000000000103e-01 -7.048729999999999718e-01 2.224148000000000014e+00 -1.877183999999999964e+00 -3.658330000000000193e-01 -1.191119999999999957e-01 -1.000169000000000086e+00 -2.355204000000000075e+00 7.768920000000000270e-01 6.369829999999999659e-01 1.626199999999999868e-01 -1.026083000000000078e+00 5.716350000000000042e-01 -6.250109999999999832e-01 1.218790999999999958e+00 -1.951727999999999907e+00 2.539529999999999843e-01 -1.292154000000000025e+00 -6.946269999999999945e-01 1.575874999999999915e+00 -1.132838000000000012e+00 4.361840000000000162e-01 5.401040000000000285e-01 1.861445999999999934e+00 -2.325725999999999960e+00 5.406210000000000182e-01 -5.442000000000000309e-02 1.311766999999999905e+00 2.748883000000000187e+00 -2.451851000000000003e+00 -1.141167000000000042e+00 -1.746253999999999973e+00 -1.816696000000000089e+00 1.544057999999999931e+00 5.293430000000000080e-01 4.285059999999999980e-01 -8.809420000000000028e-01 -2.437577999999999800e+00 4.724670000000000258e-01 -1.113417000000000101e+00 9.088239999999999652e-01 9.050160000000000426e-01 1.078338000000000019e+00 -3.163860000000000006e-01 1.458633000000000068e+00 6.760380000000000278e-01 -4.277509999999999923e-01 3.336540000000000061e-01 -4.836810000000000276e-01 -7.201599999999999668e-02 9.713399999999999812e-02 5.307169999999999943e-01 8.257970000000000033e-01 -1.876600000000000046e+00 2.213314000000000004e+00 3.598589999999999844e-01 -9.960069999999999757e-01 -8.162920000000000176e-01 1.504915999999999920e+00 7.063709999999999711e-01 1.314426000000000094e+00
1.144000000000000052e-02 -6.112910000000000288e-01 1.316680000000000073e-01 8.260990000000000277e-01 -1.535252999999999979e+00 -7.962069999999999981e-01 1.616859999999999964e-01 -3.744489999999999763e-01 3.520229999999999748e-01 -2.420080000000000009e-01 -9.905100000000000016e-02 4.709869999999999890e-01 -8.952200000000000435e-02 -6.184479999999999977e-01 7.982080000000000286e-01 -2.437620000000000064e-01 -8.023630000000000484e-01 2.120120000000000060e-01 -3.115359999999999796e-01 -7.002230000000000398e-01 5.306130000000000013e-01 4.099539999999999851e-01 -6.837050000000000072e-01 6.539800000000000058e-01 4.610899999999999721e-02 6.018440000000000456e-01 -3.560719999999999996e-01 7.678439999999999710e-01 1.677639999999999965e-01 1.983179999999999943e-01 6.403799999999999493e-01 2.675449999999999773e-01 5.554670000000000440e-01 -2.092799999999999869e-02 2.893249999999999988e-01 5.787999999999999742e-03 4.250459999999999794e-01 -3.763199999999999878e-01 4.004650000000000154e-01 3.421799999999999842e-01 -7.316000000000000281e-02 5.722599999999999909e-02 6.622449999999999726e-01 -2.814900000000000180e-01 9.899700000000000166e-02 6.471200000000000563e-02 -1.202050000000000063e-01 -8.986800000000000344e-02 -5.958539999999999948e-01 2.266039999999999999e-01 1.367029999999999912e-01 -2.898580000000000045e-01 1.416350000000000109e-01 -1.853750000000000120e-01 2.148100000000000009e-02 -2.685600000000000140e-02 -7.721419999999999950e-01 -1.104170000000000013e-01 -9.365099999999999814e-02 3.472299999999999692e-02 1.682869999999999922e-01 -5.691140000000000088e-01 -6.738099999999999645e-02 -5.648570000000000535e-01 -1.444910000000000083e-01 3.647750000000000159e-01 -1.732910000000000006e-01 1.624869999999999925e-01 -1.005810000000000037e-01 -8.544850000000000501e-01 4.948449999999999793e-01 -3.027569999999999983e-01 -4.037270000000000025e-01 6.931099999999999761e-02 -5.249340000000000117e-01 -6.126409999999999911e-01 6.622759999999999758e-01 -1.641099999999999851e-02 -9.393120000000000358e-01 9.434379999999999988e-01 2.121429999999999982e-01 6.568000000000000053e-03 1.169739999999999946e-01 9.249200000000000477e-02 4.054470000000000018e-01 6.254520000000000080e-01 -5.417250000000000121e-01 3.550200000000000022e-01 4.908699999999999730e-01 -2.070879999999999943e-01 8.064259999999999762e-01 6.149909999999999544e-01 -2.098790000000000100e-01 7.541499999999999593e-02 6.076920000000000099e-01 -6.601650000000000018e-01 -7.441419999999999702e-01 6.270179999999999643e-01 -4.760010000000000074e-01
-1.791563999999999934e+00 -3.648500000000000076e-01 -1.624713999999999992e+00 -1.057150999999999952e+00 2.232743000000000144e+00 -3.132261000000000184e+00 3.140263000000000027e+00 -1.028100000000000021e-02 -7.806220000000000381e-01 2.876270000000000215e-01 -7.977370000000000294e-01 5.874249999999999750e-01 -6.406880000000000353e-01 -2.830509999999999970e-01 5.694409999999999750e-01 1.360373000000000054e+00 -1.408454000000000095e+00 -1.445732999999999935e+00 -6.251679999999999460e-01 -3.435773000000000188e+00 -1.013271000000000033e+00 -5.133510000000000018e-01 -1.919991999999999921e+00 3.932869999999999977e-01 -2.455493000000000148e+00 8.476310000000000233e-01 -8.047459999999999614e-01 -1.215605000000000047e+00 6.540599999999999747e-01 -2.866980000000000084e-01 1.152633000000000019e+00 -4.534590000000000010e-01 2.270520000000000038e-01 1.513929999999999998e+00 9.151240000000000485e-01 -1.823929999999999996e-01 5.041820000000000190e-01 2.846220999999999890e+00 2.836532000000000053e+00 -1.809879000000000016e+00 -1.243147999999999920e+00 -4.304419999999999913e-01 1.198512999999999940e+00 9.664570000000000105e-01 -1.039204999999999934e+00 4.017819999999999725e-01 -1.627029999999999865e-01 -2.909050000000000247e-01 -1.708320000000000116e-01 -8.621199999999999697e-02 5.751852999999999660e+00 1.596850000000000103e+00 -2.813479000000000063e+00 2.018999999999999961e-01 2.076534999999999798e+00 -2.157529999999999948e+00 -2.817546999999999802e+00 -2.818597000000000019e+00 -7.269849999999999923e-01 6.971199999999999619e-01 -5.764049999999999452e-01 1.594292999999999960e+00 -2.330283999999999800e+00 4.665369999999999795e-01 -1.895432000000000006e+00 1.185553999999999997e+00 -3.769299999999999734e-02 -6.008769999999999945e-01 -4.903300000000000020e-02 8.349410000000000442e-01 1.922577999999999898e+00 6.950319999999999832e-01 3.370000000000000218e-01 4.998690000000000078e-01 -5.198310000000000430e-01 -1.101842999999999906e+00 1.039598999999999940e+00 -2.984180000000000166e-01 2.594812000000000118e+00 4.191639999999999810e-01 8.972590000000000288e-01 -8.371020000000000127e-01 3.651610000000000134e-01 1.957832000000000017e+00 9.960609999999999742e-01 6.001599999999999990e-02 -9.298750000000000071e-01 1.643656000000000006e+00 2.918250000000000011e+00 1.602217999999999920e+00 -2.624197000000000113e+00 1.360889000000000015e+00 -1.021482999999999919e+00 -1.363201000000000107e+00 -2.413730000000000042e-01 -8.660600000000000243e-02 -4.669220000000000037e-01 -4.071999999999999925e-02 1.481559999999999988e+00
-5.480300000000000171e-01 7.787110000000000420e-01 5.539749999999999952e-01 1.627812999999999954e+00 -2.104854000000000003e+00 4.760969999999999924e-01 4.873069999999999902e-01 1.303376000000000090e+00 3.914460000000000162e-01 7.666469999999999674e-01 -6.832359999999999545e-01 -3.221990000000000132e-01 3.317229999999999901e-01 -4.827200000000000241e-02 6.026920000000000055e-01 5.539159999999999640e-01 9.914479999999999960e-01 -1.055277999999999938e+00 3.179690000000000016e-01 -6.949109999999999454e-01 -1.549790000000000001e+00 -1.932542999999999900e+00 -4.929350000000000120e-01 -1.719819999999999960e-01 1.282143999999999950e+00 1.557071000000000094e+00 -1.518227999999999911e+00 1.009576000000000029e+00 4.404049999999999909e-01 -1.260719999999999896e-01 1.019719999999999960e+00 1.041229999999999933e-01 -9.757899999999999907e-02 2.516189999999999816e-01 -6.813789999999999569e-01 1.700952000000000019e+00 -8.376679999999999682e-01 -1.337361999999999940e+00 -8.769470000000000320e-01 9.906629999999999603e-01 -1.280599999999999961e+00 -4.680380000000000096e-01 -1.004145000000000065e+00 1.874210000000000043e-01 -3.002029999999999976e-01 -1.920260000000000022e-01 -6.217200000000000504e-01 3.082909999999999817e-01 2.022339999999999971e-01 1.033919999999999978e-01 -6.394769999999999621e-01 -9.692099999999999327e-02 -1.008021000000000056e+00 5.970860000000000056e-01 -6.077249999999999597e-01 -1.181480000000000030e-01 6.903949999999999809e-01 5.690760000000000263e-01 -1.661519999999999941e-01 9.047920000000000407e-01 3.275930000000000231e-01 9.096450000000000369e-01 -5.576309999999999878e-01 -3.511940000000000062e-01 -2.282865000000000144e+00 1.218107999999999969e+00 -1.904576000000000047e+00 -1.580999999999999961e+00 3.276839999999999753e-01 -1.778839999999999977e+00 1.760659999999999892e+00 7.864649999999999697e-01 -7.586049999999999738e-01 2.567508000000000123e+00 -1.631216999999999917e+00 -3.925699999999999745e-01 -6.779659999999999576e-01 -1.049611999999999989e+00 -1.198925999999999936e+00 5.138650000000000162e-01 -4.392499999999999877e-02 -2.019100000000000061e-01 -3.013290000000000135e-01 1.156870999999999983e+00 2.874600000000000072e-02 1.310394000000000059e+00 4.579600000000000337e-02 2.697660000000000058e-01 1.028923000000000032e+00 1.415467000000000031e+00 3.808460000000000178e-01 4.091879999999999962e-01 -8.387219999999999676e-01 6.511479999999999491e-01 3.264110000000000067e-01 3.110229999999999939e-01 7.371729999999999672e-01 -2.117920000000000080e-01 -2.402390000000000081e-01