6.419664745000000394e+00 0.000000000000000000e+00 0.000000000000000000e+00 1.620937161000000071e+00 8.422628393000000102e+00 0.000000000000000000e+00 7.062882299999999336e-02 1.470862000000000037e-02 8.314281691999999779e+00
6.335489049999999622e+00 0.000000000000000000e+00 0.000000000000000000e+00 1.639282681000000075e+00 8.235792707999999962e+00 0.000000000000000000e+00 -8.252719699999999659e-02 1.590845000000000019e-03 9.716150173999999140e+00
6.528476919000000045e+00 0.000000000000000000e+00 0.000000000000000000e+00 1.659926532000000066e+00 8.452057110000000151e+00 0.000000000000000000e+00 4.664915900000000254e-02 -2.258456000000000005e-02 8.480607668999999404e+00
6.483818521999999973e+00 0.000000000000000000e+00 0.000000000000000000e+00 1.633563067000000091e+00 8.373635107000000133e+00 0.000000000000000000e+00 2.015082899999999858e-02 -2.829313500000000051e-02 8.296426836000000193e+00
6.518296366999999591e+00 0.000000000000000000e+00 0.000000000000000000e+00 -4.984939577999999649e+00 8.561015132999999722e+00 0.000000000000000000e+00 2.047897009999999907e-01 -1.061693000000000012e-02 8.374079791999999856e+00
6.544803459999999795e+00 0.000000000000000000e+00 0.000000000000000000e+00 1.679089821999999899e+00 8.442073543999999430e+00 0.000000000000000000e+00 -1.280550500000000001e-02 -1.775458400000000034e-02 8.309799600999999925e+00
6.327165807000000086e+00 0.000000000000000000e+00 0.000000000000000000e+00 1.570198063999999949e+00 8.293628771999999927e+00 0.000000000000000000e+00 -4.847383899999999773e-02 4.782874000000000327e-03 8.205350636000000364e+00
6.483899210999999774e+00 0.000000000000000000e+00 0.000000000000000000e+00 1.693838292999999995e+00 8.520179091999999343e+00 0.000000000000000000e+00 5.555287700000000051e-02 6.113218000000000124e-03 8.390176592999999627e+00
6.360049635000000201e+00 0.000000000000000000e+00 0.000000000000000000e+00 1.573619265000000045e+00 8.301230352999999340e+00 0.000000000000000000e+00 1.191504260000000037e-01 -1.680704400000000015e-02 8.363684687999999312e+00
6.415791017000000096e+00 0.000000000000000000e+00 0.000000000000000000e+00 1.571603893999999890e+00 8.394393804999999986e+00 0.000000000000000000e+00 4.655703700000000250e-02 -3.519316000000000111e-02 8.467789312000000734e+00
6.516558966999999924e+00 0.000000000000000000e+00 0.000000000000000000e+00 1.714748383999999959e+00 8.406643161999999947e+00 0.000000000000000000e+00 1.012844070000000068e-01 8.320183999999999566e-03 8.394512804999999744e+00
6.500593851999999728e+00 0.000000000000000000e+00 0.000000000000000000e+00 1.645516749000000001e+00 8.425849685999999394e+00 0.000000000000000000e+00 2.524218999999999855e-03 6.779870000000000124e-04 8.253701596999999168e+00
6.439834335999999659e+00 0.000000000000000000e+00 0.000000000000000000e+00 1.597160402000000090e+00 8.461888150000000053e+00 0.000000000000000000e+00 -4.205097599999999686e-02 -3.232292600000000182e-02 8.115886872000000807e+00
6.334840716000000427e+00 0.000000000000000000e+00 0.000000000000000000e+00 1.623609408999999948e+00 8.404789513000000767e+00 0.000000000000000000e+00 -2.122687189999999946e-01 5.972169599999999773e-02 8.326406852999999941e+00
6.432259323000000251e+00 0.000000000000000000e+00 0.000000000000000000e+00 1.591047043999999966e+00 8.374193282000000238e+00 0.000000000000000000e+00 7.457981499999999375e-02 -4.738571500000000186e-02 8.475299658999999153e+00
6.435849332000000089e+00 0.000000000000000000e+00 0.000000000000000000e+00 1.563170246000000096e+00 8.424216686999999482e+00 0.000000000000000000e+00 -1.627406770000000003e-01 6.129503199999999929e-02 8.199040087000000199e+00
6.063036835000000124e+00 0.000000000000000000e+00 0.000000000000000000e+00 1.544285759999999952e+00 7.936933285000000282e+00 0.000000000000000000e+00 4.208682799999999974e-02 -5.446564300000000108e-02 1.017644849000000029e+01
6.503374529000000237e+00 0.000000000000000000e+00 0.000000000000000000e+00 1.666244233000000019e+00 8.488960296000000127e+00 0.000000000000000000e+00 -9.996723999999999888e-02 1.080475600000000043e-02 8.379353973000000622e+00
6.558714285999999838e+00 0.000000000000000000e+00 0.000000000000000000e+00 1.637649641999999961e+00 8.437151867000000749e+00 0.000000000000000000e+00 1.371321709999999972e-01 -4.253185400000000088e-02 8.501604843000000855e+00
6.358462373000000056e+00 0.000000000000000000e+00 0.000000000000000000e+00 1.539487032000000033e+00 8.260045657999999236e+00 0.000000000000000000e+00 1.281866799999999973e-01 -4.067639399999999766e-02 8.498260939999999763e+00
6.468255230999999661e+00 0.000000000000000000e+00 0.000000000000000000e+00 1.628902038000000108e+00 8.443410357999999505e+00 0.000000000000000000e+00 -1.474893840000000012e-01 3.902152899999999924e-02 8.626910912999999681e+00
6.485310789999999770e+00 0.000000000000000000e+00 0.000000000000000000e+00 1.595697501999999934e+00 8.385612619999999851e+00 0.000000000000000000e+00 -9.051449200000000195e-02 1.354004699999999950e-02 8.430607118999999372e+00
6.449143410999999659e+00 0.000000000000000000e+00 0.000000000000000000e+00 1.567636867000000045e+00 8.372873078999999663e+00 0.000000000000000000e+00 -6.646915200000000357e-02 -1.663659600000000002e-02 8.404267175999999395e+00
6.473111848000000279e+00 0.000000000000000000e+00 0.000000000000000000e+00 1.734788092999999920e+00 8.545304420000000789e+00 0.000000000000000000e+00 9.344193500000000374e-02 -3.003813199999999864e-02 8.647838136000000731e+00
6.448953116000000207e+00 0.000000000000000000e+00 0.000000000000000000e+00 1.570603546999999933e+00 8.460230103000000668e+00 0.000000000000000000e+00 -1.455512330000000021e-01 4.400027599999999789e-02 8.296096909999999269e+00
6.476107801000000386e+00 0.000000000000000000e+00 0.000000000000000000e+00 1.605934981999999955e+00 8.345295653999999175e+00 0.000000000000000000e+00 1.669013800000000020e-02 -3.941293999999999700e-03 8.440816328000000368e+00
6.443119227999999588e+00 0.000000000000000000e+00 0.000000000000000000e+00 1.597310626999999927e+00 8.401087367000000583e+00 0.000000000000000000e+00 -1.114195100000000063e-02 -1.143876000000000051e-03 8.161934520999999165e+00
6.546729764000000173e+00 0.000000000000000000e+00 0.000000000000000000e+00 1.712056274000000045e+00 8.468930968000000448e+00 0.000000000000000000e+00 -1.201639320000000011e-01 -5.659204999999999618e-03 8.406581257999999224e+00
6.445397671000000273e+00 0.000000000000000000e+00 0.000000000000000000e+00 1.627518312999999939e+00 8.397072586000000172e+00 0.000000000000000000e+00 4.727697999999999796e-03 -7.127655999999999575e-03 8.219321165000000207e+00
6.493159979999999720e+00 0.000000000000000000e+00 0.000000000000000000e+00 1.594328058000000103e+00 8.419563863000000481e+00 0.000000000000000000e+00 -5.667501600000000167e-02 -6.490179999999999907e-03 8.256189453999999373e+00
6.572042627000000081e+00 0.000000000000000000e+00 0.000000000000000000e+00 1.585318610000000072e+00 8.519575163000000728e+00 0.000000000000000000e+00 -4.972174299999999880e-02 -6.740164499999999614e-02 8.885391737000000845e+00
6.413353048000000278e+00 0.000000000000000000e+00 0.000000000000000000e+00 1.681508475000000002e+00 8.348597954000000598e+00 0.000000000000000000e+00 1.991098410000000096e-01 -7.662445999999999841e-03 8.288281161000000452e+00
6.454442307999999962e+00 0.000000000000000000e+00 0.000000000000000000e+00 1.576043008000000079e+00 8.405989642999999845e+00 0.000000000000000000e+00 -9.607222799999999563e-02 1.454170999999999979e-03 8.282914738000000554e+00
6.470194286999999989e+00 0.000000000000000000e+00 0.000000000000000000e+00 1.670409935999999984e+00 8.356545610999999596e+00 0.000000000000000000e+00 -2.113474499999999992e-02 -3.908308000000000094e-03 8.174450073999999233e+00
6.409318487000000175e+00 0.000000000000000000e+00 0.000000000000000000e+00 1.603156550000000014e+00 8.400894962000000632e+00 0.000000000000000000e+00 1.449021980000000098e-01 -2.256054099999999993e-02 8.435315614000000295e+00
6.569520325000000049e+00 0.000000000000000000e+00 0.000000000000000000e+00 1.737632856999999920e+00 8.540896990000000244e+00 0.000000000000000000e+00 5.540029600000000165e-02 -7.465059999999999708e-04 8.512998228000000722e+00
6.480183851999999689e+00 0.000000000000000000e+00 0.000000000000000000e+00 1.604539004999999907e+00 8.422459959999999413e+00 0.000000000000000000e+00 -9.139345999999999581e-03 1.408562600000000040e-02 8.220156655000000256e+00
6.441217936000000144e+00 0.000000000000000000e+00 0.000000000000000000e+00 -4.889320895000000000e+00 8.473527603999999158e+00 0.000000000000000000e+00 9.706992100000000345e-02 -1.041611800000000025e-02 8.327306739999999152e+00
6.482221673999999823e+00 0.000000000000000000e+00 0.000000000000000000e+00 1.600269794999999995e+00 8.466611178000000848e+00 0.000000000000000000e+00 -6.007313000000000236e-02 2.380318199999999912e-02 8.155435783999999799e+00
6.495533180999999878e+00 0.000000000000000000e+00 0.000000000000000000e+00 1.615619901000000080e+00 8.451707625999999252e+00 0.000000000000000000e+00 -5.773217499999999669e-02 8.465722000000000177e-03 8.157123671000000797e+00
6.432787412999999788e+00 0.000000000000000000e+00 0.000000000000000000e+00 1.702849365000000059e+00 8.352274556999999433e+00 0.000000000000000000e+00 7.648487599999999331e-02 -1.411558800000000009e-02 8.374264674999999158e+00
6.534304675999999645e+00 0.000000000000000000e+00 0.000000000000000000e+00 1.580895501999999953e+00 8.511687146999999953e+00 0.000000000000000000e+00 1.120724540000000019e-01 -2.360359500000000152e-02 8.383042230999999234e+00
6.504758576999999597e+00 0.000000000000000000e+00 0.000000000000000000e+00 1.611506353000000002e+00 8.430721745999999683e+00 0.000000000000000000e+00 3.664198000000000021e-03 -1.563937599999999997e-02 8.265726602999999173e+00
6.442817555000000418e+00 0.000000000000000000e+00 0.000000000000000000e+00 1.565351200000000054e+00 8.410415113999999193e+00 0.000000000000000000e+00 -9.366634000000000418e-03 1.233201499999999999e-02 8.402440480999999295e+00
6.422647399999999784e+00 0.000000000000000000e+00 0.000000000000000000e+00 1.578078480999999922e+00 8.374265342999999362e+00 0.000000000000000000e+00 3.008189000000000089e-03 -1.572097199999999972e-02 8.184391963999999575e+00
6.339550619999999803e+00 0.000000000000000000e+00 0.000000000000000000e+00 1.586553807000000038e+00 8.237723058000000265e+00 0.000000000000000000e+00 -6.045283500000000337e-02 4.136887499999999940e-02 9.671589597000000538e+00
6.480091300999999859e+00 0.000000000000000000e+00 0.000000000000000000e+00 1.643406533000000058e+00 8.392906704999999690e+00 0.000000000000000000e+00 1.113872899999999999e-02 2.034054600000000101e-02 8.303566119999999273e+00
6.487487716000000404e+00 0.000000000000000000e+00 0.000000000000000000e+00 1.669751401999999940e+00 8.414717828000000566e+00 0.000000000000000000e+00 -2.541888529999999924e-01 2.204332000000000166e-02 8.506655967000000373e+00
6.482429279999999849e+00 0.000000000000000000e+00 0.000000000000000000e+00 1.633023359999999924e+00 8.475398922000000113e+00 0.000000000000000000e+00 -1.486004870000000033e-01 3.107669199999999951e-02 8.574171787999999239e+00
6.433810386000000214e+00 0.000000000000000000e+00 0.000000000000000000e+00 1.573609435999999917e+00 8.499205929000000381e+00 0.000000000000000000e+00 -1.471288890000000127e-01 2.199394400000000138e-02 8.267043727000000786e+00
