-3.717178755200000069e+02
-3.692667427100000168e+02
-3.708611876300000176e+02
-3.744489894299999833e+02
-3.702174845999999775e+02
-3.724541849799999795e+02
-3.680085106700000210e+02
-3.712643987999999808e+02
-3.711303968099999793e+02
-3.718157975699999724e+02
-3.723276931699999750e+02
-3.744098499300000071e+02
-3.712651063900000281e+02
-3.672100503400000093e+02
-3.700347355499999935e+02
-3.702113299900000243e+02
-3.712573083600000245e+02
-3.715482512599999723e+02
-3.716495560500000011e+02
-3.681477400499999817e+02
-3.693784023499999876e+02
-3.699883544799999981e+02
-3.697930420600000048e+02
-3.665510907999999972e+02
-3.699429891300000008e+02
-3.684924051899999995e+02
-3.740662285099999735e+02
-3.724322401000000013e+02
-3.741949252200000160e+02
-3.745908822499999928e+02
-3.662228920800000083e+02
-3.712372083399999951e+02
-3.720854197900000031e+02
-3.740758142099999759e+02
-3.718143613899999878e+02
-3.693999338799999919e+02
-3.726660201799999754e+02
-3.723613993000000164e+02
-3.744419788399999902e+02
-3.743937944699999889e+02
-3.694118150200000059e+02
-3.674661256499999809e+02
-3.744983864600000061e+02
-3.708119647999999984e+02
-3.740262323200000196e+02
-3.694212119599999937e+02
-3.744308912299999861e+02
-3.694875634800000057e+02
-3.702051892999999723e+02
-3.703586035100000231e+02
